L-Alanine_23K computed by TONTO
GAUSSIAN             24 MOL ORBITALS    259 PRIMITIVES       13 NUCLEI
O1     1    (CENTRE  1)   8.14107400  1.94124500  6.83561300  CHARGE =  8.0
O2     2    (CENTRE  2)   4.93957800  4.26331400  8.33381100  CHARGE =  8.0
N1     3    (CENTRE  3)   7.24996200  3.18594900  2.00342100  CHARGE =  7.0
C1     4    (CENTRE  4)   6.20677800  3.26188600  6.56835800  CHARGE =  6.0
C2     5    (CENTRE  5)   5.22407800  3.73194500  3.88010800  CHARGE =  6.0
C3     6    (CENTRE  6)   2.91143300  2.10058000  3.32127100  CHARGE =  6.0
H1     7    (CENTRE  7)   7.86776700  1.39846500  2.15221400  CHARGE =  1.0
H2     8    (CENTRE  8)   8.70184800  4.39928400  2.27366200  CHARGE =  1.0
H3     9    (CENTRE  9)   6.53601200  3.44565200  0.18836200  CHARGE =  1.0
H4    10    (CENTRE 10)   4.76062500  5.73024700  3.70077900  CHARGE =  1.0
H5    11    (CENTRE 11)   2.17193600  2.54327800  1.45234800  CHARGE =  1.0
H6    12    (CENTRE 12)   1.45067600  2.42930800  4.67866700  CHARGE =  1.0
H7    13    (CENTRE 13)   3.41599700  0.10486900  3.35781400  CHARGE =  1.0
CENTRE ASSIGNMENTS    1  1  1  1  1  1  1  1  1  1  1  1  1  1  1  1  1  1  1  1
CENTRE ASSIGNMENTS    1  1  1  1  1  1  1  1  1  1  1  1  1  1  1  2  2  2  2  2
CENTRE ASSIGNMENTS    2  2  2  2  2  2  2  2  2  2  2  2  2  2  2  2  2  2  2  2
CENTRE ASSIGNMENTS    2  2  2  2  2  2  2  2  2  2  3  3  3  3  3  3  3  3  3  3
CENTRE ASSIGNMENTS    3  3  3  3  3  3  3  3  3  3  3  3  3  3  3  3  3  3  3  3
CENTRE ASSIGNMENTS    3  3  3  3  3  4  4  4  4  4  4  4  4  4  4  4  4  4  4  4
CENTRE ASSIGNMENTS    4  4  4  4  4  4  4  4  4  4  4  4  4  4  4  4  4  4  4  4
CENTRE ASSIGNMENTS    5  5  5  5  5  5  5  5  5  5  5  5  5  5  5  5  5  5  5  5
CENTRE ASSIGNMENTS    5  5  5  5  5  5  5  5  5  5  5  5  5  5  5  6  6  6  6  6
CENTRE ASSIGNMENTS    6  6  6  6  6  6  6  6  6  6  6  6  6  6  6  6  6  6  6  6
CENTRE ASSIGNMENTS    6  6  6  6  6  6  6  6  6  6  7  7  7  7  7  7  7  8  8  8
CENTRE ASSIGNMENTS    8  8  8  8  9  9  9  9  9  9  9 10 10 10 10 10 10 10 11 11
CENTRE ASSIGNMENTS   11 11 11 11 11 12 12 12 12 12 12 12 13 13 13 13 13 13 13
TYPE ASSIGNMENTS      1  1  1  1  1  1  1  1  1  1  1  1  1  1  1  1  1  2  3  4
TYPE ASSIGNMENTS      2  3  4  2  3  4  2  3  4  5  6  7  8  9 10  1  1  1  1  1
TYPE ASSIGNMENTS      1  1  1  1  1  1  1  1  1  1  1  1  2  3  4  2  3  4  2  3
TYPE ASSIGNMENTS      4  2  3  4  5  6  7  8  9 10  1  1  1  1  1  1  1  1  1  1
TYPE ASSIGNMENTS      1  1  1  1  1  1  1  2  3  4  2  3  4  2  3  4  2  3  4  5
TYPE ASSIGNMENTS      6  7  8  9 10  1  1  1  1  1  1  1  1  1  1  1  1  1  1  1
TYPE ASSIGNMENTS      1  1  2  3  4  2  3  4  2  3  4  2  3  4  5  6  7  8  9 10
TYPE ASSIGNMENTS      1  1  1  1  1  1  1  1  1  1  1  1  1  1  1  1  1  2  3  4
TYPE ASSIGNMENTS      2  3  4  2  3  4  2  3  4  5  6  7  8  9 10  1  1  1  1  1
TYPE ASSIGNMENTS      1  1  1  1  1  1  1  1  1  1  1  1  2  3  4  2  3  4  2  3
TYPE ASSIGNMENTS      4  2  3  4  5  6  7  8  9 10  1  1  1  1  2  3  4  1  1  1
TYPE ASSIGNMENTS      1  2  3  4  1  1  1  1  2  3  4  1  1  1  1  2  3  4  1  1
TYPE ASSIGNMENTS      1  1  2  3  4  1  1  1  1  2  3  4  1  1  1  1  2  3  4
EXPONENTS  0.1172000D+05 0.1759000D+04 0.4008000D+03 0.1137000D+03 0.3703000D+02
EXPONENTS  0.1327000D+02 0.5025000D+01 0.1013000D+01 0.1172000D+05 0.1759000D+04
EXPONENTS  0.4008000D+03 0.1137000D+03 0.3703000D+02 0.1327000D+02 0.5025000D+01
EXPONENTS  0.1013000D+01 0.3023000D+00 0.1770000D+02 0.1770000D+02 0.1770000D+02
EXPONENTS  0.3854000D+01 0.3854000D+01 0.3854000D+01 0.1046000D+01 0.1046000D+01
EXPONENTS  0.1046000D+01 0.2753000D+00 0.2753000D+00 0.2753000D+00 0.1185000D+01
EXPONENTS  0.1185000D+01 0.1185000D+01 0.1185000D+01 0.1185000D+01 0.1185000D+01
EXPONENTS  0.1172000D+05 0.1759000D+04 0.4008000D+03 0.1137000D+03 0.3703000D+02
EXPONENTS  0.1327000D+02 0.5025000D+01 0.1013000D+01 0.1172000D+05 0.1759000D+04
EXPONENTS  0.4008000D+03 0.1137000D+03 0.3703000D+02 0.1327000D+02 0.5025000D+01
EXPONENTS  0.1013000D+01 0.3023000D+00 0.1770000D+02 0.1770000D+02 0.1770000D+02
EXPONENTS  0.3854000D+01 0.3854000D+01 0.3854000D+01 0.1046000D+01 0.1046000D+01
EXPONENTS  0.1046000D+01 0.2753000D+00 0.2753000D+00 0.2753000D+00 0.1185000D+01
EXPONENTS  0.1185000D+01 0.1185000D+01 0.1185000D+01 0.1185000D+01 0.1185000D+01
EXPONENTS  0.9046000D+04 0.1357000D+04 0.3093000D+03 0.8773000D+02 0.2856000D+02
EXPONENTS  0.1021000D+02 0.3838000D+01 0.7466000D+00 0.9046000D+04 0.1357000D+04
EXPONENTS  0.3093000D+03 0.8773000D+02 0.2856000D+02 0.1021000D+02 0.3838000D+01
EXPONENTS  0.7466000D+00 0.2248000D+00 0.1355000D+02 0.1355000D+02 0.1355000D+02
EXPONENTS  0.2917000D+01 0.2917000D+01 0.2917000D+01 0.7973000D+00 0.7973000D+00
EXPONENTS  0.7973000D+00 0.2185000D+00 0.2185000D+00 0.2185000D+00 0.8170000D+00
EXPONENTS  0.8170000D+00 0.8170000D+00 0.8170000D+00 0.8170000D+00 0.8170000D+00
EXPONENTS  0.6665000D+04 0.1000000D+04 0.2280000D+03 0.6471000D+02 0.2106000D+02
EXPONENTS  0.7495000D+01 0.2797000D+01 0.5215000D+00 0.6665000D+04 0.1000000D+04
EXPONENTS  0.2280000D+03 0.6471000D+02 0.2106000D+02 0.7495000D+01 0.2797000D+01
EXPONENTS  0.5215000D+00 0.1596000D+00 0.9439000D+01 0.9439000D+01 0.9439000D+01
EXPONENTS  0.2002000D+01 0.2002000D+01 0.2002000D+01 0.5456000D+00 0.5456000D+00
EXPONENTS  0.5456000D+00 0.1517000D+00 0.1517000D+00 0.1517000D+00 0.5500000D+00
EXPONENTS  0.5500000D+00 0.5500000D+00 0.5500000D+00 0.5500000D+00 0.5500000D+00
EXPONENTS  0.6665000D+04 0.1000000D+04 0.2280000D+03 0.6471000D+02 0.2106000D+02
EXPONENTS  0.7495000D+01 0.2797000D+01 0.5215000D+00 0.6665000D+04 0.1000000D+04
EXPONENTS  0.2280000D+03 0.6471000D+02 0.2106000D+02 0.7495000D+01 0.2797000D+01
EXPONENTS  0.5215000D+00 0.1596000D+00 0.9439000D+01 0.9439000D+01 0.9439000D+01
EXPONENTS  0.2002000D+01 0.2002000D+01 0.2002000D+01 0.5456000D+00 0.5456000D+00
EXPONENTS  0.5456000D+00 0.1517000D+00 0.1517000D+00 0.1517000D+00 0.5500000D+00
EXPONENTS  0.5500000D+00 0.5500000D+00 0.5500000D+00 0.5500000D+00 0.5500000D+00
EXPONENTS  0.6665000D+04 0.1000000D+04 0.2280000D+03 0.6471000D+02 0.2106000D+02
EXPONENTS  0.7495000D+01 0.2797000D+01 0.5215000D+00 0.6665000D+04 0.1000000D+04
EXPONENTS  0.2280000D+03 0.6471000D+02 0.2106000D+02 0.7495000D+01 0.2797000D+01
EXPONENTS  0.5215000D+00 0.1596000D+00 0.9439000D+01 0.9439000D+01 0.9439000D+01
EXPONENTS  0.2002000D+01 0.2002000D+01 0.2002000D+01 0.5456000D+00 0.5456000D+00
EXPONENTS  0.5456000D+00 0.1517000D+00 0.1517000D+00 0.1517000D+00 0.5500000D+00
EXPONENTS  0.5500000D+00 0.5500000D+00 0.5500000D+00 0.5500000D+00 0.5500000D+00
EXPONENTS  0.1301000D+02 0.1962000D+01 0.4446000D+00 0.1220000D+00 0.7270000D+00
EXPONENTS  0.7270000D+00 0.7270000D+00 0.1301000D+02 0.1962000D+01 0.4446000D+00
EXPONENTS  0.1220000D+00 0.7270000D+00 0.7270000D+00 0.7270000D+00 0.1301000D+02
EXPONENTS  0.1962000D+01 0.4446000D+00 0.1220000D+00 0.7270000D+00 0.7270000D+00
EXPONENTS  0.7270000D+00 0.1301000D+02 0.1962000D+01 0.4446000D+00 0.1220000D+00
EXPONENTS  0.7270000D+00 0.7270000D+00 0.7270000D+00 0.1301000D+02 0.1962000D+01
EXPONENTS  0.4446000D+00 0.1220000D+00 0.7270000D+00 0.7270000D+00 0.7270000D+00
EXPONENTS  0.1301000D+02 0.1962000D+01 0.4446000D+00 0.1220000D+00 0.7270000D+00
EXPONENTS  0.7270000D+00 0.7270000D+00 0.1301000D+02 0.1962000D+01 0.4446000D+00
EXPONENTS  0.1220000D+00 0.7270000D+00 0.7270000D+00 0.7270000D+00
MO    1    MO 0.0        OCC NO =    2.0000000  ORB. ENERGY = -18.8250667
 -0.24999010D-05 -0.46441417D-05 -0.77944768D-05 -0.11406447D-04 -0.13282065D-04
 -0.97520609D-05 -0.28425831D-05 -0.48789812D-07 -0.25667836D-05 -0.48856944D-05
 -0.79951948D-05 -0.12752559D-04 -0.15162893D-04 -0.16379142D-04 -0.55904197D-05
  0.80153536D-05 -0.34323532D-04 -0.45565858D-06  0.11592851D-04  0.60334743D-04
 -0.36064744D-06  0.91755809D-05  0.47754111D-04 -0.15700844D-06  0.39946039D-05
  0.20789829D-04  0.98656833D-05 -0.79834517D-05  0.15160598D-04  0.42313675D-04
  0.55247042D-04 -0.14282573D-05  0.48865220D-05 -0.17150377D-03  0.11360026D-03
 -0.57207738D+00 -0.10627654D+01 -0.17836882D+01 -0.26102515D+01 -0.30394680D+01
 -0.22316617D+01 -0.65049674D+00 -0.11165061D-01  0.35237248D-02  0.67071654D-02
  0.10975941D-01  0.17506932D-01  0.20815881D-01  0.22485568D-01  0.76746244D-02
 -0.11003615D-01 -0.16055314D-03 -0.17816943D-02  0.12886778D-02  0.21771229D-02
 -0.14101863D-02  0.10199706D-02  0.17231626D-02 -0.61392686D-03  0.44404584D-03
  0.75018159D-03  0.54868663D-04 -0.40096992D-04 -0.73495459D-04  0.13594617D-01
  0.13617799D-01  0.13488597D-01  0.14079515D-03  0.32910441D-03 -0.26179134D-03
 -0.69254298D-06 -0.12851367D-05 -0.21559409D-05 -0.31555605D-05 -0.36728037D-05
 -0.27326042D-05 -0.81376953D-06 -0.13227249D-07  0.77067709D-06  0.14666970D-05
  0.23999120D-05  0.38207183D-05  0.45258185D-05  0.49031967D-05  0.18141580D-05
 -0.23945796D-05  0.11906780D-04 -0.38003896D-05  0.22821778D-05  0.33044115D-05
 -0.30317453D-05  0.18205980D-05  0.26360808D-05 -0.14079696D-05  0.84550200D-06
  0.12242195D-05 -0.16604361D-05 -0.21891510D-05  0.23197672D-05 -0.11034564D-04
 -0.10945623D-05  0.20122142D-04  0.10677683D-04  0.10883207D-05 -0.61353911D-05
 -0.39935860D-05 -0.74139994D-05 -0.12429639D-04 -0.18156544D-04 -0.21131119D-04
 -0.15896810D-04 -0.48237388D-05 -0.72997069D-07  0.80189559D-05  0.15279905D-04
  0.25011600D-04  0.39602531D-04  0.46814796D-04  0.50585940D-04  0.20494293D-04
 -0.24881502D-04 -0.50927096D-04 -0.56348840D-05 -0.32454785D-05  0.17017833D-04
 -0.44583340D-05 -0.25678305D-05  0.13464551D-04 -0.21312409D-05 -0.12275135D-05
  0.64365301D-05  0.17732830D-04 -0.11396766D-04  0.29391264D-05  0.55335553D-04
  0.43716554D-04  0.86055026D-04 -0.71186673D-04 -0.18255093D-03  0.13868751D-03
  0.12219132D-04  0.22684533D-04  0.38030831D-04  0.55553381D-04  0.64654655D-04
  0.48639295D-04  0.14759141D-04  0.22334834D-06 -0.74786207D-05 -0.14250311D-04
 -0.23326263D-04 -0.36934024D-04 -0.43660310D-04 -0.47177347D-04 -0.19113342D-04
  0.23204931D-04 -0.36578337D-04  0.40924921D-05 -0.68453077D-05  0.33217814D-04
  0.32379898D-05 -0.54160242D-05  0.26282016D-04  0.15478733D-05 -0.25890505D-05
  0.12563730D-04  0.35209713D-05  0.17350030D-04  0.13451603D-04 -0.64932551D-05
  0.98418590D-05  0.44169767D-04  0.26366293D-04 -0.17325578D-04  0.17266086D-04
 -0.99753487D-05 -0.18519003D-04 -0.31047280D-04 -0.45352188D-04 -0.52782207D-04
 -0.39707726D-04 -0.12048940D-04 -0.18233518D-06  0.64141927D-05  0.12222072D-04
  0.20006248D-04  0.31677224D-04  0.37446162D-04  0.40462620D-04  0.16392950D-04
 -0.19902186D-04  0.38121406D-04 -0.14025136D-05  0.26177985D-05 -0.10099211D-04
 -0.11096722D-05  0.20712086D-05 -0.79905204D-05 -0.53046245D-06  0.99011073D-06
 -0.38197505D-05  0.20352547D-04  0.48881664D-06  0.72621945D-05 -0.93835266D-05
 -0.47420165D-05 -0.14588225D-04  0.54903220D-05  0.88490693D-05  0.12797724D-05
  0.18577411D-06  0.31511767D-06  0.35865859D-06  0.16533269D-05 -0.50608813D-05
  0.39367658D-05  0.69440335D-05 -0.25282596D-06 -0.42885376D-06 -0.48811001D-06
  0.44443353D-06 -0.21825281D-05 -0.81439934D-06  0.13929824D-06  0.16662331D-06
  0.28263329D-06  0.32168573D-06 -0.51864377D-06 -0.88028574D-05  0.46305045D-05
 -0.14366154D-05 -0.60696792D-06 -0.10295639D-05 -0.11718224D-05  0.23403748D-05
 -0.60324719D-05 -0.11285182D-04 -0.25385283D-05  0.17630815D-05  0.29906111D-05
  0.34038345D-05  0.51229701D-05 -0.10621053D-05 -0.91701973D-06  0.76778314D-05
 -0.10048210D-05 -0.17044185D-05 -0.19399241D-05  0.76100749D-05  0.42454051D-05
 -0.17561426D-05 -0.14758058D-04 -0.41984025D-05 -0.71215026D-05 -0.81055058D-05
 -0.47451615D-05 -0.28676872D-05  0.29668627D-06 -0.55236765D-05
MO    2    MO 0.0        OCC NO =    2.0000000  ORB. ENERGY = -18.8211519
 -0.57208277D+00 -0.10627755D+01 -0.17837050D+01 -0.26102761D+01 -0.30394966D+01
 -0.22316828D+01 -0.65050288D+00 -0.11165166D-01  0.35354529D-02  0.67294891D-02
  0.11012473D-01  0.17565201D-01  0.20885163D-01  0.22560408D-01  0.77001681D-02
 -0.11040239D-01 -0.19683771D-03  0.28664321D-02 -0.18306720D-02  0.38153831D-03
  0.22687412D-02 -0.14489514D-02  0.30198227D-03  0.98770012D-03 -0.63080334D-03
  0.13146847D-03 -0.82886434D-04  0.48618548D-04 -0.15205824D-04  0.13441263D-01
  0.13581448D-01  0.13788884D-01  0.39114762D-03 -0.98083765D-04  0.83468951D-04
  0.15080426D-04  0.28015363D-04  0.47019473D-04  0.68808356D-04  0.80122853D-04
  0.58828422D-04  0.17147624D-04  0.29432011D-06 -0.31358391D-05 -0.59688519D-05
 -0.97677279D-05 -0.15579799D-04 -0.18524504D-04 -0.20010395D-04 -0.68298146D-05
  0.97923559D-05 -0.35050451D-04  0.40490866D-04 -0.23124726D-04  0.51273820D-04
  0.32047958D-04 -0.18302899D-04  0.40582516D-04  0.13952130D-04 -0.79681965D-05
  0.17667664D-04 -0.39289452D-05  0.22312639D-05  0.22991696D-04  0.10651293D-03
  0.84917309D-04 -0.10141108D-03 -0.67255429D-04 -0.11488352D-04 -0.11121840D-04
 -0.35148574D-05 -0.65224431D-05 -0.10942028D-04 -0.16015389D-04 -0.18640549D-04
 -0.13868763D-04 -0.41301174D-05 -0.67132144D-07  0.25536299D-05  0.48598841D-05
  0.79520817D-05  0.12659907D-04  0.14996249D-04  0.16246688D-04  0.60111924D-05
 -0.79344129D-05  0.11637073D-04 -0.17107681D-04  0.67091571D-05 -0.43652086D-05
 -0.13647582D-04  0.53522027D-05 -0.34823274D-05 -0.63380594D-05  0.24856108D-05
 -0.16172240D-05 -0.99545583D-05  0.52650171D-05  0.11562280D-04  0.14219330D-04
 -0.12976713D-04 -0.11933286D-05  0.69884221D-06 -0.20917822D-04  0.64653836D-05
 -0.22362372D-05 -0.41515222D-05 -0.69600655D-05 -0.10166887D-04 -0.11832522D-04
 -0.89015327D-05 -0.27010872D-05 -0.40875233D-07  0.66879933D-05  0.12743792D-04
  0.20860249D-04  0.33029420D-04  0.39044615D-04  0.42189836D-04  0.17092711D-04
 -0.20751744D-04 -0.40797198D-04  0.39547121D-04 -0.33725202D-04  0.14360918D-04
  0.31289779D-04 -0.26683462D-04  0.11362394D-04  0.14957618D-04 -0.12755636D-04
  0.54316249D-05  0.32811979D-06  0.45934987D-05  0.15498096D-04  0.16947398D-03
  0.87429426D-04 -0.24855806D-04 -0.21917433D-03  0.26086096D-04 -0.23332775D-04
  0.14382776D-04  0.26701289D-04  0.44764959D-04  0.65390231D-04  0.76103070D-04
  0.57251867D-04  0.17372546D-04  0.26289668D-06 -0.92554429D-05 -0.17635998D-04
 -0.28868277D-04 -0.45709063D-04 -0.54033427D-04 -0.58386065D-04 -0.23654421D-04
  0.28718119D-04 -0.42625540D-04  0.15390288D-04 -0.98293665D-05  0.23649922D-04
  0.12176833D-04 -0.77770188D-05  0.18711876D-04  0.58209557D-05 -0.37176892D-05
  0.89449365D-05  0.64090871D-05  0.63749359D-05  0.43538921D-05  0.22648376D-04
  0.27119639D-04 -0.77795765D-05 -0.87602809D-05  0.59462606D-04 -0.41644485D-04
 -0.96835774D-05 -0.17977336D-04 -0.30139171D-04 -0.44025671D-04 -0.51238368D-04
 -0.38546306D-04 -0.11696518D-04 -0.17700202D-06  0.61171392D-05  0.11656045D-04
  0.19079721D-04  0.30210191D-04  0.35711959D-04  0.38588719D-04  0.15633762D-04
 -0.18980478D-04  0.37179444D-04 -0.72595167D-05  0.64722826D-06 -0.69118071D-05
 -0.57437474D-05  0.51208858D-06 -0.54686386D-05 -0.27457138D-05  0.24479640D-06
 -0.26142021D-05  0.11742160D-04  0.31476867D-05  0.12418085D-04 -0.84570610D-05
 -0.15797820D-04 -0.76489984D-05 -0.10427751D-05  0.26313044D-05  0.96439823D-05
 -0.39954592D-06 -0.67772618D-06 -0.77137001D-06  0.99479285D-05 -0.34074917D-05
  0.12802312D-04  0.66192593D-05 -0.25073582D-05 -0.42530838D-05 -0.48407475D-05
  0.33947656D-05  0.78064693D-07 -0.31480515D-05 -0.16831910D-05  0.18839465D-05
  0.31956273D-05  0.36371785D-05 -0.23754151D-05  0.40211751D-05 -0.12881913D-05
 -0.15533253D-05 -0.16810196D-05 -0.28514144D-05 -0.32454044D-05  0.39405275D-05
 -0.36705742D-05  0.12520149D-04  0.21119380D-04  0.15713710D-05  0.26654239D-05
  0.30337149D-05  0.62291597D-05  0.19107018D-05  0.17123100D-06  0.59964589D-05
 -0.33058504D-05 -0.56075190D-05 -0.63823298D-05 -0.19366520D-05 -0.34043494D-05
  0.25993885D-06 -0.88026740D-05 -0.17394911D-05 -0.29505962D-05 -0.33582905D-05
 -0.23347585D-05 -0.64741273D-05  0.54334907D-05 -0.45990362D-05
MO    3    MO 0.0        OCC NO =    2.0000000  ORB. ENERGY = -14.1823236
  0.18310957D-05  0.34016818D-05  0.57091991D-05  0.83548491D-05  0.97286781D-05
  0.71430654D-05  0.20820991D-05  0.35736940D-07 -0.67702355D-06 -0.12886673D-05
 -0.21088397D-05 -0.33636582D-05 -0.39994161D-05 -0.43202180D-05 -0.14745481D-05
  0.21141568D-05  0.16900503D-04 -0.31935010D-04  0.18871898D-04 -0.34390642D-04
 -0.25276117D-04  0.14936845D-04 -0.27219716D-04 -0.11003998D-04  0.65027795D-05
 -0.11850147D-04  0.21634488D-05  0.59222746D-06  0.97095813D-06  0.18515047D-04
  0.31214861D-04  0.11297673D-05  0.93230183D-05  0.30297859D-05 -0.63833002D-06
 -0.99169138D-06 -0.18422951D-05 -0.30920086D-05 -0.45248492D-05 -0.52688925D-05
 -0.38685671D-05 -0.11276307D-05 -0.19354541D-07  0.83262138D-06  0.15848370D-05
  0.25935065D-05  0.41367153D-05  0.49185871D-05  0.53131178D-05  0.18134380D-05
 -0.26000457D-05  0.36459938D-06  0.42839453D-04 -0.35417233D-04  0.54377734D-05
  0.33906832D-04 -0.28032248D-04  0.43039221D-05  0.14761394D-04 -0.12203884D-04
  0.18737194D-05 -0.35070611D-05  0.40595218D-06 -0.21736247D-04 -0.38001607D-05
 -0.70077795D-05  0.26020840D-04 -0.34013454D-04 -0.17215302D-04  0.31431100D-04
  0.46442468D+00  0.86182261D+00  0.14457906D+01  0.21161432D+01  0.24630106D+01
  0.18325055D+01  0.54572014D+00  0.88702957D-02 -0.31311143D-02 -0.59589106D-02
 -0.97503856D-02 -0.15522851D-01 -0.18387539D-01 -0.19920755D-01 -0.73705786D-02
  0.97287211D-02  0.49275781D-03  0.84806940D-04  0.39466397D-04  0.96447308D-04
  0.67654391D-04  0.31484157D-04  0.76940447D-04  0.31419304D-04  0.14621524D-04
  0.35731832D-04  0.36463038D-04 -0.19404446D-04 -0.18756645D-04 -0.86198406D-02
 -0.85725964D-02 -0.86668093D-02  0.27561033D-04  0.31233310D-04 -0.85333084D-05
  0.91721266D-05  0.17027840D-04  0.28547331D-04  0.41700397D-04  0.48532147D-04
  0.36510432D-04  0.11078751D-04  0.16765342D-06 -0.85723933D-05 -0.16334465D-04
 -0.26737804D-04 -0.42335744D-04 -0.50045772D-04 -0.54077187D-04 -0.21908730D-04
  0.26598728D-04 -0.29741747D-04  0.15495609D-04 -0.17708676D-04  0.41674367D-05
  0.12260164D-04 -0.14011148D-04  0.32972861D-05  0.58607906D-05 -0.66978226D-05
  0.15762190D-05 -0.13442979D-04  0.87937390D-05  0.26528184D-04 -0.17777976D-04
  0.17375088D-05 -0.51399391D-04  0.27706420D-04  0.21855767D-04 -0.92154882D-05
 -0.87125752D-05 -0.16174693D-04 -0.27117023D-04 -0.39611081D-04 -0.46100538D-04
 -0.34681149D-04 -0.10523672D-04 -0.15925348D-06  0.62724994D-05  0.11952079D-04
  0.19564299D-04  0.30977455D-04  0.36618954D-04  0.39568777D-04  0.16030820D-04
 -0.19462535D-04  0.60486089D-04  0.21594263D-03 -0.30304894D-04 -0.20677517D-03
  0.17085433D-03 -0.23977306D-04 -0.16360102D-03  0.81674396D-04 -0.11461998D-04
 -0.78207055D-04  0.60456004D-04 -0.36048330D-04 -0.37110513D-04  0.12167713D-03
  0.30572870D-05  0.11393451D-03 -0.57722123D-04 -0.22459926D-03  0.59393839D-04
  0.52031304D-05  0.96594905D-05  0.16194225D-04  0.23655649D-04  0.27531138D-04
  0.20711504D-04  0.62847131D-05  0.95105820D-07 -0.57129321D-05 -0.10885839D-04
 -0.17818975D-04 -0.28213968D-04 -0.33352191D-04 -0.36038862D-04 -0.14600717D-04
  0.17726290D-04 -0.79171781D-05 -0.11413808D-05 -0.24846062D-04 -0.24524420D-04
 -0.90306331D-06 -0.19658265D-04 -0.19403781D-04 -0.43169610D-06 -0.93973437D-05
 -0.92756914D-05 -0.20345328D-04  0.14097240D-04  0.11166188D-04 -0.52200620D-04
  0.22525518D-06 -0.12174265D-04 -0.15273010D-04  0.44677521D-04 -0.88041128D-05
  0.67995489D-04  0.11533674D-03  0.13127322D-03 -0.40977207D-04 -0.55354262D-04
  0.18991249D-03 -0.29659724D-04  0.71347029D-04  0.12102176D-03  0.13774376D-03
 -0.37810055D-04 -0.14752087D-03 -0.12566449D-03 -0.39977299D-04  0.78827862D-04
  0.13371105D-03  0.15218638D-03 -0.29452628D-04  0.10402330D-03 -0.34244279D-04
  0.24820911D-03 -0.13169963D-05 -0.22339432D-05 -0.25426150D-05  0.14630048D-04
 -0.57397055D-04  0.30938982D-04  0.43901767D-04  0.41658441D-06  0.70662755D-06
  0.80426479D-06 -0.36778953D-06  0.63697499D-05 -0.14404000D-04 -0.14206897D-04
  0.63255268D-05  0.10729618D-04  0.12212167D-04 -0.65094825D-05  0.35584482D-04
 -0.19899480D-05 -0.16346158D-04  0.31767572D-05  0.53885458D-05  0.61331003D-05
  0.10495324D-04 -0.29351432D-05 -0.64047708D-05 -0.12060130D-04
MO    4    MO 0.0        OCC NO =    2.0000000  ORB. ENERGY = -10.0906005
 -0.31250573D-04 -0.58055133D-04 -0.97436603D-04 -0.14258885D-03 -0.16603543D-03
 -0.12190782D-03 -0.35534346D-04 -0.60990797D-06  0.63944646D-04  0.12171419D-03
  0.19917920D-03  0.31769637D-03  0.37774350D-03  0.40804313D-03  0.13927056D-03
 -0.19968140D-03 -0.58707135D-04  0.33182055D-03 -0.18442286D-03  0.43438236D-04
  0.26263136D-03 -0.14596814D-03  0.34380760D-04  0.11433698D-03 -0.63547462D-04
  0.14967719D-04  0.75450314D-04 -0.67399925D-04 -0.27090246D-04  0.14326724D-03
 -0.62120626D-04 -0.20963555D-03 -0.48218716D-03  0.21736363D-03 -0.13812719D-03
 -0.39840795D-04 -0.74013449D-04 -0.12422018D-03 -0.18178396D-03 -0.21167559D-03
 -0.15541810D-03 -0.45302101D-04 -0.77756073D-06  0.62949097D-04  0.11981924D-03
  0.19607819D-03  0.31275019D-03  0.37186245D-03  0.40169035D-03  0.13710227D-03
 -0.19657258D-03 -0.46657238D-04 -0.19652296D-03  0.15306300D-03  0.29646559D-03
 -0.15554519D-03  0.12114723D-03  0.23464840D-03 -0.67716849D-04  0.52741643D-04
  0.10215456D-03 -0.79824775D-04  0.54869897D-04  0.46336114D-04 -0.12806867D-03
 -0.14601890D-03  0.14261289D-03 -0.17233373D-03 -0.41460413D-03  0.34984127D-03
 -0.31415750D-04 -0.58297513D-04 -0.97799706D-04 -0.14314534D-03 -0.16660898D-03
 -0.12395882D-03 -0.36914937D-04 -0.60002624D-06  0.23195173D-04  0.44143379D-04
  0.72230480D-04  0.11499268D-03  0.13621418D-03  0.14757218D-03  0.54600962D-04
 -0.72069990D-04  0.12474191D-03 -0.45652703D-04  0.19908309D-04  0.15898471D-04
 -0.36419258D-04  0.15881773D-04  0.12682941D-04 -0.16913429D-04  0.73756373D-05
  0.58900710D-05 -0.48232279D-04 -0.98583525D-05  0.58836219D-04 -0.15138649D-04
 -0.41325101D-04  0.83931517D-04 -0.30699526D-04 -0.95057024D-04  0.12437734D-04
 -0.36519293D+00 -0.67797217D+00 -0.11366266D+01 -0.16603227D+01 -0.19323323D+01
 -0.14536816D+01 -0.44110614D+00 -0.66752071D-02  0.27621497D-02  0.52632022D-02
  0.86153092D-02  0.13641192D-01  0.16125475D-01  0.17424456D-01  0.70593114D-02
 -0.85704967D-02 -0.65688346D-03 -0.22651694D-03  0.95466190D-04 -0.62173866D-03
 -0.17922075D-03  0.75533083D-04 -0.49192115D-03 -0.85673840D-04  0.36107477D-04
 -0.23515565D-03  0.27382960D-04 -0.79949877D-05  0.47777792D-04  0.49168554D-02
  0.49424725D-02  0.51113591D-02  0.81060526D-04  0.15399021D-03 -0.77230930D-04
 -0.44144680D-03 -0.81953572D-03 -0.13739592D-02 -0.20070054D-02 -0.23358117D-02
 -0.17572167D-02 -0.53321103D-03 -0.80690195D-05  0.93268997D-05  0.17772157D-04
  0.29091155D-04  0.46061961D-04  0.54450593D-04  0.58836836D-04  0.23837046D-04
 -0.28939837D-04 -0.15572319D-03 -0.16895310D-03  0.22071584D-04 -0.47888899D-03
 -0.13367610D-03  0.17463091D-04 -0.37889814D-03 -0.63901891D-04  0.83479733D-05
 -0.18112667D-03 -0.31734111D-04  0.47573884D-04 -0.10213228D-04 -0.41575529D-04
 -0.35522285D-04 -0.11361746D-03 -0.17602146D-04 -0.61023200D-04  0.22429005D-04
  0.19615750D-05  0.36416183D-05  0.61052068D-05  0.89181559D-05  0.10379212D-04
  0.78082164D-05  0.23693306D-05  0.35854799D-07  0.11966922D-05  0.22802649D-05
  0.37325542D-05  0.59100014D-05  0.69863088D-05  0.75490877D-05  0.30584233D-05
 -0.37131394D-05  0.22989606D-04  0.86535081D-04  0.62211115D-04  0.21614718D-04
  0.68466768D-04  0.49221586D-04  0.17101618D-04  0.32729529D-04  0.23529654D-04
  0.81751765D-05  0.42266253D-04  0.10323807D-05  0.24389121D-04  0.80352789D-04
  0.28146576D-04  0.34684290D-04  0.38241230D-04  0.72297547D-04  0.25339622D-04
 -0.54691265D-05 -0.92769566D-05 -0.10558787D-04  0.13291421D-04 -0.13653544D-04
  0.15323945D-04  0.45647561D-04  0.14868356D-05  0.25220315D-05  0.28705095D-05
  0.23492543D-04 -0.35599754D-04 -0.17958723D-04  0.31235216D-04 -0.37449882D-05
 -0.63524025D-05 -0.72301365D-05 -0.12259487D-04  0.10079574D-04  0.89620708D-05
 -0.48203256D-04  0.25550676D-04  0.43340105D-04  0.49328561D-04  0.12846118D-04
  0.62002805D-04 -0.76569233D-04  0.85779342D-04 -0.80752172D-06 -0.13697515D-05
 -0.15590149D-05  0.92430839D-05 -0.13580736D-04  0.72529060D-05 -0.29646567D-04
 -0.28190643D-05 -0.47818125D-05 -0.54425325D-05  0.21012242D-04  0.32446546D-04
  0.13654823D-04  0.14984564D-04 -0.78286288D-05 -0.13279241D-04 -0.15114081D-04
  0.13122100D-04  0.27476657D-04  0.21674888D-04  0.21683675D-04
MO    5    MO 0.0        OCC NO =    2.0000000  ORB. ENERGY = -10.0433210
  0.21977231D-04  0.40827767D-04  0.68523121D-04  0.10027682D-03  0.11676583D-03
  0.85732715D-04  0.24989832D-04  0.42892298D-06 -0.16878976D-04 -0.32127960D-04
 -0.52575801D-04 -0.83859869D-04 -0.99710047D-04 -0.10770801D-03 -0.36762180D-04
  0.52708363D-04 -0.12798570D-03  0.21644487D-03 -0.13171864D-03 -0.13076612D-04
  0.17131311D-03 -0.10425348D-03 -0.10349957D-04  0.74581436D-04 -0.45386918D-04
 -0.45058703D-05  0.55539972D-04 -0.36780465D-04  0.78888923D-04 -0.86544032D-04
 -0.54591463D-05 -0.72706994D-05  0.18013233D-03 -0.18708970D-03  0.12795001D-03
  0.26461568D-04  0.49158454D-04  0.82504897D-04  0.12073777D-03  0.14059127D-03
  0.10322602D-03  0.30088873D-04  0.51644241D-06 -0.19678416D-04 -0.37456498D-04
 -0.61295687D-04 -0.97768332D-04 -0.11624732D-03 -0.12557177D-03 -0.42859321D-04
  0.61450236D-04 -0.10905441D-03 -0.14145972D-03  0.87860077D-04  0.10792041D-03
 -0.11196341D-03  0.69540031D-04  0.85417503D-04 -0.48743449D-04  0.30274364D-04
  0.37186647D-04  0.17151573D-04  0.27370780D-05  0.11847524D-03  0.74465254D-04
  0.76556514D-04 -0.20936781D-03  0.98764180D-05  0.78545906D-04 -0.10577616D-03
 -0.55511120D-05 -0.10301076D-04 -0.17281049D-04 -0.25293549D-04 -0.29439537D-04
 -0.21903322D-04 -0.65228093D-05 -0.10602366D-06 -0.72502710D-05 -0.13798192D-04
 -0.22577566D-04 -0.35944034D-04 -0.42577379D-04 -0.46127627D-04 -0.17066989D-04
  0.22527400D-04  0.23612714D-03 -0.29629005D-03  0.73522586D-04  0.27382639D-03
 -0.23636418D-03  0.58652343D-04  0.21844388D-03 -0.10976964D-03  0.27238673D-04
  0.10144729D-03 -0.39819292D-04  0.24153017D-04  0.50697883D-04 -0.23212301D-04
  0.84583118D-04 -0.21413427D-04  0.83146331D-04  0.23968200D-03 -0.42558681D-04
 -0.41649669D-03 -0.77321642D-03 -0.12963045D-02 -0.18935715D-02 -0.22037941D-02
 -0.16579006D-02 -0.50307450D-03 -0.76129669D-05 -0.14728210D-04 -0.28064208D-04
 -0.45938162D-04 -0.72736948D-04 -0.85983529D-04 -0.92909893D-04 -0.37641341D-04
  0.45699215D-04  0.18582668D-03 -0.14706657D-03  0.74275042D-04 -0.43665596D-03
 -0.11635943D-03  0.58766595D-04 -0.34548326D-03 -0.55623910D-04  0.28092504D-04
 -0.16515318D-03 -0.20053694D-04  0.61556763D-05 -0.11110475D-03  0.11778957D-03
  0.27886866D-04  0.19882743D-03 -0.23667946D-03  0.59852934D-04 -0.36751264D-05
  0.36521339D+00  0.67801015D+00  0.11366903D+01  0.16604157D+01  0.19324406D+01
  0.14537630D+01  0.44113086D+00  0.66755810D-02 -0.28178976D-02 -0.53694283D-02
 -0.87891903D-02 -0.13916510D-01 -0.16450932D-01 -0.17776130D-01 -0.72017880D-02
  0.87434733D-02  0.76253580D-03  0.57341748D-03 -0.19362593D-03 -0.80619774D-03
  0.45368931D-03 -0.15319731D-03 -0.63786563D-03  0.21687949D-03 -0.73233717D-04
 -0.30492226D-03 -0.12709344D-03  0.89190094D-04 -0.19721513D-05 -0.51931428D-02
 -0.51022789D-02 -0.52563185D-02 -0.75414553D-04 -0.11100408D-03  0.10755915D-04
  0.52595940D-03  0.97643138D-03  0.16369963D-02  0.23912356D-02  0.27829902D-02
  0.20936262D-02  0.63529139D-03  0.96137894D-05 -0.56179224D-04 -0.10704800D-03
 -0.17522634D-03 -0.27744752D-03 -0.32797523D-03 -0.35439512D-03 -0.14357898D-03
  0.17431490D-03 -0.62256653D-04  0.38925642D-03  0.27670480D-03  0.11190520D-03
  0.30798063D-03  0.21892952D-03  0.88539669D-04  0.14722560D-03  0.10465603D-03
  0.42325084D-04  0.21257415D-05 -0.17632896D-04 -0.26870731D-04  0.12616245D-03
  0.13694562D-03  0.13665709D-03  0.80722509D-05  0.85554047D-05  0.59595032D-05
 -0.34878247D-04 -0.59161912D-04 -0.67336524D-04  0.12402567D-05  0.43870800D-04
 -0.56373508D-04 -0.33621360D-04 -0.44609890D-04 -0.75669124D-04 -0.86124595D-04
 -0.88838405D-05  0.84601801D-04  0.39836439D-04 -0.35584265D-04 -0.38875042D-04
 -0.65941441D-04 -0.75052803D-04 -0.92439311D-05  0.31564382D-04 -0.94080486D-05
 -0.99563250D-04  0.77890375D-04  0.13212085D-03  0.15037645D-03 -0.16297489D-03
  0.17411459D-04  0.26763139D-04 -0.21329824D-05 -0.41799148D-04 -0.70901430D-04
 -0.80698132D-04 -0.18327218D-04 -0.11521138D-03 -0.93327470D-05 -0.11071673D-03
 -0.32145432D-04 -0.54526400D-04 -0.62060506D-04 -0.48998163D-05 -0.16731613D-03
 -0.50397263D-04  0.43734690D-04 -0.32896123D-04 -0.55799753D-04 -0.63509803D-04
 -0.15560546D-04 -0.12027419D-04 -0.13754113D-03  0.71118545D-05
MO    6    MO 0.0        OCC NO =    2.0000000  ORB. ENERGY =  -9.9925174
  0.85903574D-05  0.15958567D-04  0.26783997D-04  0.39195734D-04  0.45640882D-04
  0.33510802D-04  0.97679086D-05  0.16765541D-06 -0.58385854D-05 -0.11113342D-04
 -0.18186429D-04 -0.29007861D-04 -0.34490576D-04 -0.37257141D-04 -0.12716359D-04
  0.18232283D-04 -0.62613609D-04  0.66754922D-04 -0.34273285D-04  0.32099576D-04
  0.52835593D-04 -0.27126829D-04  0.25406368D-04  0.23002060D-04 -0.11809709D-04
  0.11060703D-04  0.13273817D-04 -0.61550070D-05  0.21267335D-05 -0.48832996D-05
  0.38559553D-05  0.17964431D-04  0.28977076D-04 -0.90434557D-05  0.66125875D-05
 -0.20471020D-04 -0.38029632D-04 -0.63826883D-04 -0.93404339D-04 -0.10876328D-03
 -0.79857015D-04 -0.23277151D-04 -0.39952670D-06  0.10423015D-04  0.19839485D-04
  0.32466326D-04  0.51784696D-04  0.61572413D-04  0.66511271D-04  0.22701184D-04
 -0.32548185D-04  0.78640934D-04 -0.12788362D-04  0.10895305D-04  0.99532541D-04
 -0.10121811D-04  0.86234823D-05  0.78778624D-04 -0.44065465D-05  0.37542469D-05
  0.34296401D-04  0.14402148D-05 -0.10675677D-05 -0.25202414D-04 -0.10965210D-03
 -0.90879636D-04 -0.86546998D-04  0.11354626D-04  0.33191437D-04  0.18496560D-04