CrystalExplorer Job                                                     
SP        UHF                                                         3-21G               
Number of atoms                            I                9
Info1-9                                    I   N=           9
          15          15           0           0           0         110
           1           1           2
Full Title                                 C   N=           2
CrystalExplorer Job     
Route                                      C   N=           3
#P UHF/3-21G 6d 10f NoSymm FChk     
Charge                                     I                0
Multiplicity                               I                1
Number of electrons                        I               26
Number of alpha electrons                  I               13
Number of beta electrons                   I               13
Number of basis functions                  I               39
Number of independent functions            I               39
Number of point charges in /Mol/           I                0
Number of translation vectors              I                0
Atomic numbers                             I   N=           9
           6           6           1           1           8           1
           1           1           1
Nuclear charges                            R   N=           9
  6.00000000E+00  6.00000000E+00  1.00000000E+00  1.00000000E+00  8.00000000E+00
  1.00000000E+00  1.00000000E+00  1.00000000E+00  1.00000000E+00
Current cartesian coordinates              R   N=          27
 -2.44599915E+00  3.00807929E+00 -7.29282353E+00 -3.70796771E+00  3.29549151E+00
 -4.77395655E+00 -3.38201451E+00  1.71589212E+00 -8.57451894E+00 -2.53497879E+00
  4.61160640E+00 -8.56140802E+00  1.40291378E-01  2.32140950E+00 -6.89944113E+00
 -2.81046873E+00  4.81968792E+00 -3.74460572E+00 -3.68890793E+00  1.59650489E+00
 -3.63314778E+00 -5.70565011E+00  3.71152417E+00 -4.93131026E+00  9.08092775E-01
  2.11905007E+00 -8.57878973E+00
Number of symbols in /Mol/                 I                0
Force Field                                I                0
Atom Types                                 C   N=           9
                                                            
                                                
Int Atom Types                             I   N=           9
           0           0           0           0           0           0
           0           0           0
MM charges                                 R   N=           9
  0.00000000E+00  0.00000000E+00  0.00000000E+00  0.00000000E+00  0.00000000E+00
  0.00000000E+00  0.00000000E+00  0.00000000E+00  0.00000000E+00
Integer atomic weights                     I   N=           9
          12          12           1           1          16           1
           1           1           1
Real atomic weights                        R   N=           9
  1.20000000E+01  1.20000000E+01  1.00782504E+00  1.00782504E+00  1.59949146E+01
  1.00782504E+00  1.00782504E+00  1.00782504E+00  1.00782504E+00
Atom fragment info                         I   N=           9
           0           0           0           0           0           0
           0           0           0
Atom residue num                           I   N=           9
           0           0           0           0           0           0
           0           0           0
Nuclear spins                              I   N=           9
           0           0           1           1           0           1
           1           1           1
Nuclear ZEff                               R   N=           9
 -3.60000000E+00 -3.60000000E+00 -1.00000000E+00 -1.00000000E+00 -5.60000000E+00
 -1.00000000E+00 -1.00000000E+00 -1.00000000E+00 -1.00000000E+00
Nuclear ZNuc                               R   N=           9
  6.00000000E+00  6.00000000E+00  1.00000000E+00  1.00000000E+00  8.00000000E+00
  1.00000000E+00  1.00000000E+00  1.00000000E+00  1.00000000E+00
Nuclear QMom                               R   N=           9
  0.00000000E+00  0.00000000E+00  0.00000000E+00  0.00000000E+00  0.00000000E+00
  0.00000000E+00  0.00000000E+00  0.00000000E+00  0.00000000E+00
Nuclear GFac                               R   N=           9
  0.00000000E+00  0.00000000E+00  2.79284600E+00  2.79284600E+00  0.00000000E+00
  2.79284600E+00  2.79284600E+00  2.79284600E+00  2.79284600E+00
MicOpt                                     I   N=           9
          -1          -1          -1          -1          -1          -1
          -1          -1          -1
Number of residues                         I                0
Number of secondary structures             I                0
Number of contracted shells                I               21
Number of primitive shells                 I               36
Pure/Cartesian d shells                    I                1
Pure/Cartesian f shells                    I                1
Highest angular momentum                   I                1
Largest degree of contraction              I                3
Shell types                                I   N=          21
           0          -1          -1           0          -1          -1
           0           0           0           0           0          -1
          -1           0           0           0           0           0
           0           0           0
Number of primitives per shell             I   N=          21
           3           2           1           3           2           1
           2           1           2           1           3           2
           1           2           1           2           1           2
           1           2           1
Shell to atom map                          I   N=          21
           1           1           1           2           2           2
           3           3           4           4           5           5
           5           6           6           7           7           8
           8           9           9
Primitive exponents                        R   N=          36
  1.72256000E+02  2.59109000E+01  5.53335000E+00  3.66498000E+00  7.70545000E-01
  1.95857000E-01  1.72256000E+02  2.59109000E+01  5.53335000E+00  3.66498000E+00
  7.70545000E-01  1.95857000E-01  5.44717800E+00  8.24547240E-01  1.83191580E-01
  5.44717800E+00  8.24547240E-01  1.83191580E-01  3.22037000E+02  4.84308000E+01
  1.04206000E+01  7.40294000E+00  1.57620000E+00  3.73684000E-01  5.44717800E+00
  8.24547240E-01  1.83191580E-01  5.44717800E+00  8.24547240E-01  1.83191580E-01
  5.44717800E+00  8.24547240E-01  1.83191580E-01  5.44717800E+00  8.24547240E-01
  1.83191580E-01
Contraction coefficients                   R   N=          36
  6.17669074E-02  3.58794043E-01  7.00713084E-01 -3.95895162E-01  1.21583436E+00
  1.00000000E+00  6.17669074E-02  3.58794043E-01  7.00713084E-01 -3.95895162E-01
  1.21583436E+00  1.00000000E+00  1.56284979E-01  9.04690877E-01  1.00000000E+00
  1.56284979E-01  9.04690877E-01  1.00000000E+00  5.92393934E-02  3.51499961E-01
  7.07657921E-01 -4.04453583E-01  1.22156176E+00  1.00000000E+00  1.56284979E-01
  9.04690877E-01  1.00000000E+00  1.56284979E-01  9.04690877E-01  1.00000000E+00
  1.56284979E-01  9.04690877E-01  1.00000000E+00  1.56284979E-01  9.04690877E-01
  1.00000000E+00
P(S=P) Contraction coefficients            R   N=          36
  0.00000000E+00  0.00000000E+00  0.00000000E+00  2.36459947E-01  8.60618806E-01
  1.00000000E+00  0.00000000E+00  0.00000000E+00  0.00000000E+00  2.36459947E-01
  8.60618806E-01  1.00000000E+00  0.00000000E+00  0.00000000E+00  0.00000000E+00
  0.00000000E+00  0.00000000E+00  0.00000000E+00  0.00000000E+00  0.00000000E+00
  0.00000000E+00  2.44586107E-01  8.53955373E-01  1.00000000E+00  0.00000000E+00
  0.00000000E+00  0.00000000E+00  0.00000000E+00  0.00000000E+00  0.00000000E+00
  0.00000000E+00  0.00000000E+00  0.00000000E+00  0.00000000E+00  0.00000000E+00
  0.00000000E+00
Coordinates of each shell                  R   N=          63
 -2.44599915E+00  3.00807929E+00 -7.29282353E+00 -2.44599915E+00  3.00807929E+00
 -7.29282353E+00 -2.44599915E+00  3.00807929E+00 -7.29282353E+00 -3.70796771E+00
  3.29549151E+00 -4.77395655E+00 -3.70796771E+00  3.29549151E+00 -4.77395655E+00
 -3.70796771E+00  3.29549151E+00 -4.77395655E+00 -3.38201451E+00  1.71589212E+00
 -8.57451894E+00 -3.38201451E+00  1.71589212E+00 -8.57451894E+00 -2.53497879E+00
  4.61160640E+00 -8.56140802E+00 -2.53497879E+00  4.61160640E+00 -8.56140802E+00
  1.40291378E-01  2.32140950E+00 -6.89944113E+00  1.40291378E-01  2.32140950E+00
 -6.89944113E+00  1.40291378E-01  2.32140950E+00 -6.89944113E+00 -2.81046873E+00
  4.81968792E+00 -3.74460572E+00 -2.81046873E+00  4.81968792E+00 -3.74460572E+00
 -3.68890793E+00  1.59650489E+00 -3.63314778E+00 -3.68890793E+00  1.59650489E+00
 -3.63314778E+00 -5.70565011E+00  3.71152417E+00 -4.93131026E+00 -5.70565011E+00
  3.71152417E+00 -4.93131026E+00  9.08092775E-01  2.11905007E+00 -8.57878973E+00
  9.08092775E-01  2.11905007E+00 -8.57878973E+00
Constraint Structure                       R   N=          27
 -2.44599915E+00  3.00807929E+00 -7.29282353E+00 -3.70796771E+00  3.29549151E+00
 -4.77395655E+00 -3.38201451E+00  1.71589212E+00 -8.57451894E+00 -2.53497879E+00
  4.61160640E+00 -8.56140802E+00  1.40291378E-01  2.32140950E+00 -6.89944113E+00
 -2.81046873E+00  4.81968792E+00 -3.74460572E+00 -3.68890793E+00  1.59650489E+00
 -3.63314778E+00 -5.70565011E+00  3.71152417E+00 -4.93131026E+00  9.08092775E-01
  2.11905007E+00 -8.57878973E+00
Num ILSW                                   I              100
ILSW                                       I   N=         100
           1           1           0           0           2           0
           0           0           3           0           0          -1
           0           0           0           1           0           0
           0           0           0           0           0           0
           1           1           0           0           0           0
           0           0      100000           0          -1           0
           0           0           0           0           0           0
           0           0           0           1           0           0
           0           0           1           0           0           0
           0           0           4          41           0           0
           0           0           0           0           0           0
           0           0           0           9           0           0
           0           0           0           0           0           0
           0           0           0           0           0           0
           0           0           0           0           0           0
           0           0           0           0           0           0
           0           0           0           0
Num RLSW                                   I               41
RLSW                                       R   N=          41
  1.00000000E+00  1.00000000E+00  1.00000000E+00  1.00000000E+00  1.00000000E+00
  0.00000000E+00  0.00000000E+00  1.00000000E+00  0.00000000E+00  0.00000000E+00
  0.00000000E+00  0.00000000E+00  1.00000000E+00  0.00000000E+00  0.00000000E+00
  0.00000000E+00  0.00000000E+00  1.00000000E+00  0.00000000E+00  0.00000000E+00
  0.00000000E+00  0.00000000E+00  1.00000000E+00  0.00000000E+00  0.00000000E+00
  0.00000000E+00  0.00000000E+00  1.00000000E+00  0.00000000E+00  0.00000000E+00
  0.00000000E+00  0.00000000E+00  1.00000000E+00  0.00000000E+00  0.00000000E+00
  0.00000000E+00  0.00000000E+00  0.00000000E+00  1.00000000E+00  1.00000000E+00
  0.00000000E+00
MxBond                                     I                4
NBond                                      I   N=           9
           4           4           1           1           2           1
           1           1           1
IBond                                      I   N=          36
           2           3           4           5           1           6
           7           8           1           0           0           0
           1           0           0           0           1           9
           0           0           2           0           0           0
           2           0           0           0           2           0
           0           0           5           0           0           0
RBond                                      R   N=          36
  1.00000000E+00  1.00000000E+00  1.00000000E+00  1.00000000E+00  1.00000000E+00
  1.00000000E+00  1.00000000E+00  1.00000000E+00  1.00000000E+00  0.00000000E+00
  0.00000000E+00  0.00000000E+00  1.00000000E+00  0.00000000E+00  0.00000000E+00
  0.00000000E+00  1.00000000E+00  1.00000000E+00  0.00000000E+00  0.00000000E+00
  1.00000000E+00  0.00000000E+00  0.00000000E+00  0.00000000E+00  1.00000000E+00
  0.00000000E+00  0.00000000E+00  0.00000000E+00  1.00000000E+00  0.00000000E+00
  0.00000000E+00  0.00000000E+00  1.00000000E+00  0.00000000E+00  0.00000000E+00
  0.00000000E+00
Virial Ratio                               R      2.001935085694414E+00
SCF Energy                                 R     -1.532127918612859E+02
Total Energy                               R     -1.532127918612859E+02
S**2                                       R      1.421085471520200E-14
S**2 after annihilation                    R      1.776356839400282E-14
RMS Density                                R      3.179045774969511E-09
External E-field                           R   N=          35
  0.00000000E+00  0.00000000E+00  0.00000000E+00  0.00000000E+00  0.00000000E+00
  0.00000000E+00  0.00000000E+00  0.00000000E+00  0.00000000E+00  0.00000000E+00
  0.00000000E+00  0.00000000E+00  0.00000000E+00  0.00000000E+00  0.00000000E+00
  0.00000000E+00  0.00000000E+00  0.00000000E+00  0.00000000E+00  0.00000000E+00
  0.00000000E+00  0.00000000E+00  0.00000000E+00  0.00000000E+00  0.00000000E+00
  0.00000000E+00  0.00000000E+00  0.00000000E+00  0.00000000E+00  0.00000000E+00
  0.00000000E+00  0.00000000E+00  0.00000000E+00  0.00000000E+00  0.00000000E+00
IOpCl                                      I                1
IROHF                                      I                0
Alpha Orbital Energies                     R   N=          39
 -2.04365355E+01 -1.12153958E+01 -1.11535065E+01 -1.33968530E+00 -1.01561041E+00
 -8.46289415E-01 -6.84937683E-01 -6.32996457E-01 -5.60934695E-01 -5.30062967E-01
 -5.15696122E-01 -4.85164164E-01 -4.16759731E-01  2.54132126E-01  3.05324712E-01
  3.26047003E-01  3.43833135E-01  3.57349234E-01  3.87694576E-01  4.28310932E-01
  4.66854499E-01  9.04368872E-01  9.51857859E-01  9.89645889E-01  1.05418953E+00
  1.10100959E+00  1.13982954E+00  1.26471755E+00  1.30832981E+00  1.33286421E+00
  1.36485743E+00  1.37505550E+00  1.43462322E+00  1.88090110E+00  1.91287412E+00
  2.01871468E+00  2.13174994E+00  2.31878105E+00  3.39331349E+00
Beta Orbital Energies                      R   N=          39
 -2.04365355E+01 -1.12153958E+01 -1.11535065E+01 -1.33968530E+00 -1.01561041E+00
 -8.46289415E-01 -6.84937683E-01 -6.32996457E-01 -5.60934695E-01 -5.30062967E-01
 -5.15696122E-01 -4.85164164E-01 -4.16759731E-01  2.54132126E-01  3.05324712E-01
  3.26047003E-01  3.43833135E-01  3.57349234E-01  3.87694576E-01  4.28310932E-01
  4.66854499E-01  9.04368872E-01  9.51857859E-01  9.89645889E-01  1.05418953E+00
  1.10100959E+00  1.13982954E+00  1.26471755E+00  1.30832981E+00  1.33286421E+00
  1.36485743E+00  1.37505550E+00  1.43462322E+00  1.88090110E+00  1.91287412E+00
  2.01871468E+00  2.13174994E+00  2.31878105E+00  3.39331349E+00
Alpha MO coefficients                      R   N=        1521
 -7.84719051E-04 -3.06815262E-03  1.95753199E-03 -5.30514783E-04 -1.48431570E-04
  1.89172188E-02  8.18201253E-03 -2.07381803E-03  2.65073656E-03  1.55005147E-04
  4.96899493E-04 -5.60192558E-04  1.32095601E-04  4.64127365E-04 -4.94547312E-03
 -2.19504811E-03  5.75186675E-04  1.13920181E-03 -1.34664340E-03 -1.18049790E-03
 -1.45765888E-03 -1.31634753E-03  9.83447806E-01  9.76136738E-02 -2.28287987E-03
  6.10305384E-04 -3.06290479E-03 -4.37211037E-02  7.17722579E-03 -1.92994879E-03
  6.08900575E-03  4.43756244E-04  1.35131376E-05  4.33742247E-04  1.32655179E-04
 -2.45451778E-04  7.21383204E-04  3.18876592E-03  5.05916422E-03  9.87459025E-01
  1.00394345E-01 -2.35979692E-04  6.76879513E-05 -7.28568402E-04 -7.67166085E-02
  6.14635779E-03 -1.57532093E-03 -1.34256132E-03 -2.93553492E-03 -2.67892527E-03
 -1.48300170E-04  1.03697348E-06  4.66017827E-04  1.91593976E-02  4.71787559E-03
 -8.96495028E-04 -1.19065867E-02  1.64709021E-04  1.52643966E-02  1.27851019E-04
  1.52087765E-02 -1.41402052E-04 -2.15894631E-04 -5.41468579E-04  1.66904542E-04
 -2.61591231E-04  6.90215561E-03 -2.08320250E-03  4.64558870E-04  5.69077576E-04
 -1.30326867E-03  1.71026323E-03 -1.19641876E-03  1.76378564E-03 -1.27586664E-03
  6.87062596E-04 -1.56500253E-04  1.97059368E-03  2.33613729E-03 -1.98344899E-03
  2.58428122E-05  1.29129390E-04 -2.56330302E-04  1.95205368E-02 -5.62553972E-03
  5.27138191E-04  1.03500526E-02  9.87438705E-01  1.01695703E-01 -2.17250675E-04
 -6.70071811E-06  7.73908263E-06 -8.18023774E-02 -1.14251272E-03  5.76160176E-04
  3.68441948E-03 -1.22751813E-03  4.66555188E-04 -1.07248213E-03  1.10673140E-03
  3.38872008E-05 -2.92388535E-05  4.38748392E-04 -1.28204842E-04 -4.13898545E-04
 -1.17297798E-03 -5.63911866E-04  2.54112029E-04  1.03496016E-03  8.71521026E-05
  1.44689923E-02  1.26253643E-04  1.45086042E-02  1.95123966E-04  1.46853135E-02
  5.48050305E-04  1.24091972E-03 -7.79150407E-02  8.44157011E-02  7.18712481E-02
 -1.88424395E-02  8.44710892E-03  1.26127358E-01 -9.23959158E-03  2.46464119E-03
 -1.38487481E-02 -1.81219564E-02  1.68934731E-02  1.26143199E-02 -2.94611825E-03
 -1.48646892E-02  3.79377402E-02  1.56099517E-02 -4.15713725E-03  2.68944631E-03
  2.46472099E-02 -7.77399693E-03  2.57740439E-02 -7.02622396E-03 -2.20651648E-01
  2.04575150E-01 -3.91424167E-02  1.06728151E-02 -6.19913191E-02  6.90907688E-01
 -5.92498581E-02  1.62061375E-02 -7.67000271E-02  5.00362517E-03 -2.69917133E-03
  4.65214340E-03 -3.32769417E-03  5.90844858E-03  8.47144513E-04  1.01187265E-01
  1.89852873E-02 -1.29912478E-01  1.33506729E-01 -7.36237975E-02  1.80248729E-02
  5.49770657E-02  3.32718397E-01 -3.17459827E-02  1.11408343E-02 -1.04084996E-02
 -1.68962840E-01  1.65971322E-01  1.53159327E-02 -3.23299201E-03 -4.72425432E-02
  4.59698956E-01 -9.95089919E-03  7.54245327E-04 -5.82323106E-03  7.03455250E-02
 -2.72831153E-03  6.88559245E-02 -5.50001633E-03  5.95749618E-02 -5.32736991E-02
 -6.43274872E-02  1.69139547E-02  3.84157363E-02 -2.25651687E-01 -3.73184873E-02
  9.54951088E-03  3.48801796E-02  8.57001018E-02 -2.94601294E-04  8.43483844E-02
 -1.00726106E-03  8.92066301E-02 -1.25702822E-03 -6.23582870E-02 -3.58497986E-02
 -1.39373397E-01  1.31936772E-01 -1.14144449E-02  6.42914958E-03 -1.32094268E-01
  4.89310194E-01 -3.43758573E-02  9.03394111E-03 -8.57316703E-02  1.20244480E-01
 -1.08075730E-01  3.97717956E-02 -6.23702030E-03 -9.86950628E-02 -4.19470583E-01
  1.70071995E-02 -2.20872954E-03 -2.92755196E-02  1.30281265E-01  3.48917827E-02
  1.32074534E-01  3.74338678E-02  4.87042248E-02 -4.49047021E-02 -1.05715824E-01
  2.90355956E-02 -7.00698661E-03 -2.01221372E-01 -8.66197989E-02  2.43511540E-02
 -1.46630554E-03 -9.37271511E-02 -3.28208622E-02 -9.93264775E-02 -3.57362113E-02
 -9.05493349E-02 -3.09358200E-02 -5.32621970E-02 -4.22767051E-02 -1.16800213E-02
  1.37985693E-02  1.45273699E-01 -2.83627441E-02  1.87427635E-01  3.46940294E-02
  7.48423163E-02 -1.35589141E-02  1.59011630E-01  1.66743214E-02 -1.09168845E-02
  1.39657440E-01 -1.96315825E-02 -2.77399624E-02 -9.22127908E-02  9.71024521E-02
 -1.23485932E-02  1.71330223E-03 -8.74026814E-02 -6.06863736E-02 -7.49692843E-02
 -5.09334445E-02 -2.63563340E-02  2.31761950E-02 -2.09983507E-01  6.08704831E-02
  2.37940022E-01  1.15610647E-01 -2.05289495E-01  5.96386919E-02  2.25698856E-01
  8.16708145E-03  8.74781202E-03 -8.68278245E-03 -5.92847395E-04 -9.48079904E-02
 -6.54208164E-02 -1.99353788E-01 -1.48782426E-01  1.82835475E-03 -1.84351446E-03
  6.68182277E-02  2.76806225E-01 -6.09380257E-03 -8.78872338E-03  5.78336188E-02
  2.24389549E-01 -5.73129090E-03 -2.58461992E-03  2.14667980E-03  5.79063916E-02
  2.04409690E-01  7.64001483E-03  1.29091311E-02  4.08524317E-02  1.45586492E-01
  3.94100509E-03 -1.35828318E-01 -1.11596621E-01  1.43376031E-01  1.19196159E-01
  3.14406428E-03 -2.52912312E-03  6.56237602E-02  1.91657775E-01 -1.74801607E-02
 -1.47896105E-02  6.79977922E-02  1.96913242E-01 -1.78284266E-02  1.19398853E-01
  9.37478770E-02 -1.03175354E-01 -8.36897286E-02 -6.74002529E-03 -5.41137562E-03
  1.41153955E-02  1.11012131E-02  1.18327151E-02 -1.08386932E-02  2.22866424E-01
 -4.43912650E-02 -1.77437589E-01 -5.81328673E-02  1.66805073E-01 -2.62513777E-02
 -1.95516342E-01 -1.67023413E-03 -4.33998554E-03  1.26259080E-02 -4.23882263E-02
  2.90137770E-01  7.80458489E-02  1.40561661E-02 -4.05621804E-02  1.98736253E-01
  9.52140138E-03  8.79503943E-04  2.79271484E-02  1.53479489E-02  3.90821318E-02
 -4.11036565E-02 -2.04563812E-01  7.12733216E-02 -1.52522602E-01 -1.63892792E-01
 -2.32915927E-01  7.95238019E-02 -1.66270186E-01  8.40047392E-02  7.65984496E-02
  1.35856269E-01  1.17327534E-01 -3.47184901E-02 -4.05612492E-02 -3.91252097E-03
 -2.97881719E-02 -1.11835250E-02  1.20629390E-02 -9.81642005E-02 -6.80227383E-02
  5.59164551E-02  3.42595752E-02 -8.35225199E-02 -9.42207836E-02  2.84687512E-02
 -1.13630330E-02  1.31502036E-02  3.06379141E-01  1.13618015E-01  2.86018362E-02
  4.21307727E-02  2.51342422E-01  1.26732231E-01  3.50388040E-02  5.60294258E-02
  4.73978431E-02 -4.74647782E-02 -4.73444280E-02  2.48122099E-02 -1.85820959E-02
  5.51687895E-02 -1.86055735E-01 -9.73541903E-02 -1.22126760E-01  6.41240381E-02
 -2.07788671E-01 -1.05540827E-01  1.84584467E-01  1.48820859E-01 -3.86785743E-02
 -2.81118628E-02 -1.99058888E-01 -2.03731591E-01  9.01513373E-02  8.77644573E-02
  1.16115971E-02 -1.18970451E-02  7.43471451E-02 -1.08722145E-01 -5.85916520E-02
 -4.76173819E-02  4.38494666E-02 -1.33655460E-01 -5.19864684E-02  6.45110693E-03
 -9.28534257E-03 -1.55064315E-01  2.83347219E-01  1.25562730E-03 -1.00948568E-02
 -1.12852953E-01  2.72854718E-01 -1.64505071E-02  3.96410572E-02  3.80062561E-02
 -6.01560784E-02 -5.55177223E-02 -9.99342543E-03  4.68476681E-03 -1.69858028E-01
 -1.61528659E-01  2.47250465E-02  5.54322618E-02 -1.96249832E-01 -1.80869831E-01
  2.43204029E-02  9.92828529E-02  8.45467718E-02 -1.91587770E-01 -1.63212422E-01
  1.58404838E-01  1.67323432E-01 -5.95936144E-02 -6.55956162E-02  2.09402236E-02
 -3.11973732E-02 -7.20579802E-02  1.68683595E-02 -2.41330526E-01 -2.05104030E-02
 -6.04529756E-02  9.13255352E-03 -1.19184130E-01  2.00467135E-02 -1.74388198E-02
 -1.62627955E-02  2.48341698E-02  2.03893734E-01 -1.21629213E-01  3.30057343E-02
  1.15478751E-02  1.92565422E-01  1.10682086E-01  1.32075316E-01  1.03077981E-01
  1.23478178E-01 -5.85174471E-02  5.67154696E-02  1.48074072E-01 -6.42057446E-02
  3.13136450E-01  2.71264746E-01  1.86790342E-01 -7.85073874E-02  3.72628183E-01
  7.27036421E-02  9.17575165E-02  5.34973419E-02  7.13278115E-02 -2.01905899E-02
  1.21891291E-02 -1.17390163E-01 -9.77963039E-02  2.04335509E-03 -1.70868356E-03
 -5.67101654E-02 -2.29877886E-01 -1.12559584E-02 -1.03047934E-02 -2.49091982E-02
 -1.20318611E-01 -8.67326191E-03  5.43868097E-04 -5.37175118E-04  1.55149599E-02
  7.84803843E-02  8.89728556E-03 -1.83618133E-03  4.77439381E-03  3.91418431E-02
  7.73712286E-03  1.78703347E-01  2.45885748E-01 -1.76433487E-01 -2.38872219E-01
 -1.17596618E-03  8.27783558E-04  9.73898336E-02  3.93449580E-01  1.99918944E-03
  6.44502071E-03  1.21648554E-01  4.90282294E-01  2.63319961E-03  6.38114582E-02
  1.07929847E-01 -5.79314932E-02 -9.89004991E-02  5.81679306E-04  2.84880130E-03
 -3.49507314E-03 -4.71810906E-03 -6.04403274E-02 -5.64294282E-03 -1.29138797E-01
  4.20561398E-02 -1.06411653E-01  1.06086766E+00 -3.80881669E-01  1.26773399E-01
 -4.26885574E-01 -3.00685211E-02  1.47043201E-02 -5.62814695E-02  2.54259803E-02
  1.78799705E-02  4.09394135E-01 -3.01742276E-01  1.18509234E-01  1.63185795E-01
  2.21778861E-03 -6.94619092E-01 -5.69364197E-03 -7.41544588E-01 -7.96053004E-02
  3.40899140E-02  2.64677806E-02 -6.67976319E-03 -1.48947759E-01  7.04805072E-01
  8.74797649E-02 -2.48806534E-02 -3.27455410E-01  2.26831998E-02 -1.24549998E-01
  3.75689661E-02 -1.25654118E-02 -5.11590034E-02 -6.26063815E-01 -5.82047175E-02
 -9.28176383E-01 -5.06408245E-02  3.62571643E-02  4.90098031E-02 -3.93984433E-02
 -5.83966091E-02  6.08619510E-01  1.35843974E-01 -1.15662399E-01 -4.74238620E-01
 -1.33559975E-01  2.41887552E-02 -2.41175268E-02 -5.25253424E-03  9.97420918E-02
  2.01965168E+00  5.70252593E-02 -6.16999797E-02  5.38447499E-01  1.03807098E-02
 -5.59933421E-01  2.55749419E-02 -3.60787475E-01  4.20659930E-02 -1.10248956E-02
  4.51611152E-02 -4.14996503E-03  1.13999471E-01 -4.08517390E-01  8.67961560E-02
 -5.74593151E-03  2.63443315E-01 -2.11703669E-02 -1.01931484E+00 -2.99665939E-02
 -1.16506668E+00  5.28234698E-02 -5.52698928E-01  1.48977237E-02  4.04936486E-01
  2.57858180E-02 -1.14012695E-02 -5.37946615E-02 -2.30989165E-01 -1.08682919E-03
 -3.28163250E-01 -1.17958850E-01 -7.75015573E-01  5.75367582E-02 -9.89497061E-03
  3.27216687E-03 -5.06317918E-02 -1.76512655E-01 -1.84023103E-02  1.08809853E-01
 -2.96537877E-01 -7.53513476E-01 -1.13091027E-01 -5.60613437E-02 -8.01281655E-01
  5.84973988E-02  1.17955692E+00 -1.32255034E-02  5.86334025E-03  1.59323428E-02
  3.55797263E-02 -3.10761327E-02  1.17746142E-01  5.37767278E-02  1.09801736E-01
 -7.74782741E-02  6.87327928E-02  1.02855813E+00 -5.75213902E-02 -9.02293594E-01
 -3.96643736E-03 -1.72736223E-01 -1.56535673E-02 -1.97870041E-01 -1.34640334E-01
  3.77289544E-02 -4.27498162E-02 -3.60804874E-02 -9.81663666E-02  1.89218964E+00
 -4.05067052E-01 -5.82856423E-02 -4.54900691E-01  1.03573336E-01 -2.06945169E-02
  2.99819119E-02 -3.78709756E-02 -9.26023525E-03 -1.44612949E+00  2.77892254E-01
 -1.92972264E-01  1.72958379E-01 -8.56448591E-03 -1.32919729E+00  1.03376939E-02
 -9.31671179E-01  4.45560882E-02 -2.43885614E-02  3.59209947E-02  2.84551137E-05
  7.91634100E-02 -3.71180497E-01  5.99334400E-02  1.30274904E-02  2.22419789E-01
 -3.93905530E-03  5.86122625E-01 -2.61384182E-02  2.62709317E-01  1.97741701E-02
  8.94283621E-01  4.39253203E-02  4.58046771E-01  7.90529034E-03  1.05005206E-03
  3.62614044E-02  1.18246881E-02  2.18062711E-02 -1.29604524E-01 -5.00830701E-02
  1.06706841E-01 -1.24377879E-01  2.01494185E-03  8.70701432E-03  2.58193456E-01
 -8.17822419E-02  9.32311722E-02 -7.33922955E-02  1.15517043E+00 -3.70700725E-01
  4.47968723E-01  1.07123061E-02  1.54740235E-01  1.81705498E-02 -9.57934389E-03
 -2.23234437E-02 -4.55846806E-03  8.27639047E-02 -2.81010532E-02 -1.17826384E-01
  3.12497058E-01  1.48273309E-01 -5.33888387E-02 -2.47888955E-01 -1.58246148E-02
 -5.89478325E-01 -3.06547942E-02 -7.87920015E-01  5.10215727E-02  1.63626838E+00
  2.57482637E-03 -5.90049204E-01  4.46093060E-03  2.02845614E-05 -7.40467967E-02
 -2.37667408E-01  2.15880989E-02 -7.35801659E-02 -3.92154953E-01 -1.11368804E+00
  7.22199759E-02  4.98739128E-03 -2.83802199E-04  7.42278483E-02  1.99664513E-01
  1.30530336E-02 -1.05760989E-01  4.37617303E-01  1.24994180E+00  8.67999309E-02
  2.13636761E-03 -1.00536301E+00 -7.57489930E-03  1.15934916E+00 -4.72272033E-03
 -1.42777427E-04  1.36683181E-02  7.97676830E-02 -8.45953253E-03  5.96884766E-02
  1.99057125E-02  1.89175541E-01 -2.26094502E-02 -2.58663145E-02 -1.21851519E+00
  1.30211673E-02  1.08465656E+00 -6.96587114E-03  1.98234706E-01  7.60651032E-04
 -1.58886734E-02 -1.47431353E-03  1.28521989E-02  2.22370974E-01 -5.88769397E-02
 -1.53828291E-01 -3.94844097E-01  1.33834292E+00 -3.62073736E-01 -9.18825553E-01
 -4.13204114E-02  8.12285322E-03  2.65550984E-02  2.72322108E-02 -1.93783144E-01
  7.26847602E-01  1.98016916E-01  1.15504363E-01 -1.31824758E+00  9.18522486E-03
 -1.68828196E-01  1.15839622E-02 -1.98410006E-01  3.64982687E-02 -7.65659590E-03
  2.11793857E-01 -5.15425466E-02 -4.49250355E-03 -4.02645519E-01  5.79680620E-01
 -1.48938221E-01  1.33851993E-02  1.55812429E-02  2.46783960E-01  6.24557370E-03
  6.05994764E-01  7.28533828E-02 -1.10822464E-01 -5.41778548E-02 -5.70760065E-01
 -1.22825231E-01  5.11798245E-02  1.14308587E-01 -3.17732152E-02  2.29741565E-01
  1.50078919E+00  4.88396287E-01 -1.41629964E-01  1.63429628E+00  7.06980812E-02
  1.71576844E-02 -6.74983197E-02  1.90234603E-02  9.78056286E-02 -1.17383547E+00
 -1.06682768E+00  2.39220083E-01  1.07871558E+00  5.34910433E-02  4.47924766E-01
  5.11259991E-02  4.16163713E-01  5.35763926E-02 -1.43523468E-02  1.99372935E-01
 -5.40420071E-02 -4.87246810E-02 -5.73366521E-01  6.26090890E-01 -1.66148385E-01
 -2.10057126E-01 -6.03662932E-02  2.59587476E-02 -5.64204229E-02 -1.82420051E-02
  7.27709586E-03 -4.24831199E-01 -9.60908806E-03 -3.26663996E-01 -2.83996385E-03
  1.13659717E-02 -4.69758507E-02 -3.77784223E-01  2.40633545E-02 -4.45691197E-02
  1.49691001E-01  4.87680731E-01 -1.05067154E-01 -1.11245233E-03  4.46926001E-05
 -8.57177038E-02 -4.94427712E-01  1.94917130E-02  5.49835262E-02  1.86120027E-01
  7.17414847E-01 -1.02176393E-01  3.94881777E-01 -1.85250753E-01 -4.45323246E-01
  1.58935503E-01  1.65695698E-03 -4.17303927E-03 -6.61523803E-03 -9.53938203E-02
  6.30789414E-03  7.72158957E-04 -6.27077586E-03 -8.37344745E-02  6.96534402E-03
 -4.14409127E-01  6.68544369E-02  4.57188467E-01 -8.10459488E-02 -3.23221272E-02
  5.65602584E-02 -1.81918048E-02 -8.37815131E-04 -4.39209112E-02  1.15126533E-01
  6.56089988E-01 -1.51059144E-01 -7.65441108E-02  9.75807814E-03 -5.35273111E-01
  9.80972647E-02  2.10935240E-01  2.64953280E-03 -1.22178663E-02  2.86182051E-01
 -2.81060122E-02  4.55665490E-01 -2.32601777E-01 -6.01440519E-01  6.56782169E-02
 -5.66028789E-01 -1.84772605E-01  2.76576579E-02 -9.37891985E-02  9.17230049E-04