urea; ccsd; pob-TZVP                                                    
SP        RCCSD-FC                                                    Gen                 
Number of atoms                            I                8
Info1-9                                    I   N=           9
         183         181           0           0           0         110
           1          14         301
Charge                                     I                0
Multiplicity                               I                1
Number of electrons                        I               32
Number of alpha electrons                  I               16
Number of beta electrons                   I               16
Number of basis functions                  I              100
Number of independent functions            I              100
Number of point charges in /Mol/           I                0
Number of translation vectors              I                0
Atomic numbers                             I   N=           8
           6           8           7           7           1           1
           1           1
Nuclear charges                            R   N=           8
  6.00000000E+00  8.00000000E+00  7.00000000E+00  7.00000000E+00  1.00000000E+00
  1.00000000E+00  1.00000000E+00  1.00000000E+00
Current cartesian coordinates              R   N=          24
 -8.53680636E-17  6.82949981E-17  2.11259571E-01  2.13354161E-16 -4.21891438E-16
  2.58040922E+00  2.90246189E-16  2.15775739E+00 -1.11381639E+00 -1.04202144E-15
 -2.15775739E+00 -1.11381639E+00  1.03222651E-17  3.81095124E+00 -1.68575382E-01
  1.83092379E-16  2.13076537E+00 -2.99012547E+00 -1.54398997E-15 -3.81095124E+00
 -1.68575382E-01 -7.05086040E-16 -2.13076537E+00 -2.99012547E+00
Force Field                                I                0
Int Atom Types                             I   N=           8
           0           0           0           0           0           0
           0           0
MM charges                                 R   N=           8
  0.00000000E+00  0.00000000E+00  0.00000000E+00  0.00000000E+00  0.00000000E+00
  0.00000000E+00  0.00000000E+00  0.00000000E+00
Integer atomic weights                     I   N=           8
          12          16          14          14           1           1
           1           1
Real atomic weights                        R   N=           8
  1.20000000E+01  1.59949146E+01  1.40030740E+01  1.40030740E+01  1.00782504E+00
  1.00782504E+00  1.00782504E+00  1.00782504E+00
Atom fragment info                         I   N=           8
           0           0           0           0           0           0
           0           0
Atom residue num                           I   N=           8
           0           0           0           0           0           0
           0           0
Nuclear spins                              I   N=           8
           0           0           2           2           1           1
           1           1
Nuclear ZEff                               R   N=           8
 -3.60000000E+00 -5.60000000E+00 -4.55000000E+00 -4.55000000E+00 -1.00000000E+00
 -1.00000000E+00 -1.00000000E+00 -1.00000000E+00
Nuclear ZNuc                               R   N=           8
  6.00000000E+00  8.00000000E+00  7.00000000E+00  7.00000000E+00  1.00000000E+00
  1.00000000E+00  1.00000000E+00  1.00000000E+00
Nuclear QMom                               R   N=           8
  0.00000000E+00  0.00000000E+00  2.04400000E+00  2.04400000E+00  0.00000000E+00
  0.00000000E+00  0.00000000E+00  0.00000000E+00
Nuclear GFac                               R   N=           8
  0.00000000E+00  0.00000000E+00  4.03761000E-01  4.03761000E-01  2.79284600E+00
  2.79284600E+00  2.79284600E+00  2.79284600E+00
MicOpt                                     I   N=           8
          -1          -1          -1          -1          -1          -1
          -1          -1
Number of contracted shells                I               48
Number of primitive shells                 I               92
Pure/Cartesian d shells                    I                1
Pure/Cartesian f shells                    I                1
Highest angular momentum                   I                2
Largest degree of contraction              I                6
Shell types                                I   N=          48
           0           0           0           0           1           1
           1           2           0           0           0           0
           1           1           1           2           0           0
           0           0           1           1           1           2
           0           0           0           0           1           1
           1           2           0           0           0           1
           0           0           0           1           0           0
           0           1           0           0           0           1
Number of primitives per shell             I   N=          48
           6           2           1           1           4           1
           1           1           6           2           1           1
           4           1           1           1           6           2
           1           1           4           1           1           1
           6           2           1           1           4           1
           1           1           3           1           1           1
           3           1           1           1           3           1
           1           1           3           1           1           1
Shell to atom map                          I   N=          48
           1           1           1           1           1           1
           1           1           2           2           2           2
           2           2           2           2           3           3
           3           3           3           3           3           3
           4           4           4           4           4           4
           4           4           5           5           5           5
           6           6           6           6           7           7
           7           7           8           8           8           8
Primitive exponents                        R   N=          92
  1.35753497E+04  2.03523337E+03  4.63225624E+02  1.31200196E+02  4.28530159E+01
  1.55841858E+01  6.20671385E+00  2.57648965E+00  4.94110200E-01  1.64407100E-01
  3.46972322E+01  7.95826228E+00  2.37808269E+00  8.14332082E-01  5.66241710E-01
  2.67354500E-01  8.79158420E-01  2.70323826E+04  4.05238714E+03  9.22327227E+02
  2.61240710E+02  8.53546414E+01  3.10350352E+01  1.22608607E+01  4.99870760E+00
  1.09871360E+00  3.56587010E-01  6.32749548E+01  1.46270494E+01  4.45012235E+00
  1.52757996E+00  5.48973500E-01  1.85867110E-01  2.53462130E-01  1.97308006E+04
  2.95789587E+03  6.73221336E+02  1.90682495E+02  6.22954419E+01  2.26541612E+01
  8.97914774E+00  3.68630024E+00  7.86539820E-01  2.67799720E-01  4.92003805E+01
  1.13467905E+01  3.42739724E+00  1.17855251E+00  3.78033170E-01  1.47361500E-01
  3.61229490E-01  1.97308006E+04  2.95789587E+03  6.73221336E+02  1.90682495E+02
  6.22954419E+01  2.26541612E+01  8.97914774E+00  3.68630024E+00  7.86539820E-01
  2.67799720E-01  4.92003805E+01  1.13467905E+01  3.42739724E+00  1.17855251E+00
  3.78033170E-01  1.47361500E-01  3.61229490E-01  3.40613410E+01  5.12357460E+00
  1.16466260E+00  4.15745510E-01  1.79511100E-01  8.00000000E-01  3.40613410E+01
  5.12357460E+00  1.16466260E+00  4.15745510E-01  1.79511100E-01  8.00000000E-01
  3.40613410E+01  5.12357460E+00  1.16466260E+00  4.15745510E-01  1.79511100E-01
  8.00000000E-01  3.40613410E+01  5.12357460E+00  1.16466260E+00  4.15745510E-01
  1.79511100E-01  8.00000000E-01
Contraction coefficients                   R   N=          92
  6.06455036E-04  4.69790889E-03  2.43324776E-02  9.73999683E-02  3.01955843E-01
  6.62336091E-01  6.55953085E-01  3.75856333E-01  1.00000000E+00  1.00000000E+00
  1.13272200E-02  7.61696592E-02  3.01922522E-01  7.27850273E-01  1.00000000E+00
  1.00000000E+00  1.00000000E+00  5.72273352E-04  4.43532335E-03  2.30201077E-02
  9.28224907E-02  2.93785000E-01  6.74016045E-01  6.38399370E-01  3.95345871E-01
  1.00000000E+00  1.00000000E+00  1.20183322E-02  8.30054218E-02  3.19917439E-01
  7.07155429E-01  1.00000000E+00  1.00000000E+00  1.00000000E+00  5.86264026E-04
  4.54288206E-03  2.35584135E-02  9.47091933E-02  2.97197849E-01  6.69162469E-01
  6.45966836E-01  3.87005744E-01  1.00000000E+00  1.00000000E+00  1.14488251E-02
  7.84223380E-02  3.08180947E-01  7.20271964E-01  1.00000000E+00  1.00000000E+00
  1.00000000E+00  5.86264026E-04  4.54288206E-03  2.35584135E-02  9.47091933E-02
  2.97197849E-01  6.69162469E-01  6.45966836E-01  3.87005744E-01  1.00000000E+00
  1.00000000E+00  1.14488251E-02  7.84223380E-02  3.08180947E-01  7.20271964E-01
  1.00000000E+00  1.00000000E+00  1.00000000E+00  2.91872634E-02  2.18091185E-02
  9.78030715E-01  1.00000000E+00  1.00000000E+00  1.00000000E+00  2.91872634E-02
  2.18091185E-02  9.78030715E-01  1.00000000E+00  1.00000000E+00  1.00000000E+00
  2.91872634E-02  2.18091185E-02  9.78030715E-01  1.00000000E+00  1.00000000E+00
  1.00000000E+00  2.91872634E-02  2.18091185E-02  9.78030715E-01  1.00000000E+00
  1.00000000E+00  1.00000000E+00
Coordinates of each shell                  R   N=         144
  9.11391339E-33 -8.53653272E-18  2.11259571E-01  9.11391339E-33 -8.53653272E-18
  2.11259571E-01  9.11391339E-33 -8.53653272E-18  2.11259571E-01  9.11391339E-33
 -8.53653272E-18  2.11259571E-01  9.11391339E-33 -8.53653272E-18  2.11259571E-01
  9.11391339E-33 -8.53653272E-18  2.11259571E-01  9.11391339E-33 -8.53653272E-18
  2.11259571E-01  9.11391339E-33 -8.53653272E-18  2.11259571E-01  1.11320998E-31
 -1.04268638E-16  2.58040922E+00  1.11320998E-31 -1.04268638E-16  2.58040922E+00
  1.11320998E-31 -1.04268638E-16  2.58040922E+00  1.11320998E-31 -1.04268638E-16
  2.58040922E+00  1.11320998E-31 -1.04268638E-16  2.58040922E+00  1.11320998E-31
 -1.04268638E-16  2.58040922E+00  1.11320998E-31 -1.04268638E-16  2.58040922E+00
  1.11320998E-31 -1.04268638E-16  2.58040922E+00  1.19779597E-16  2.15775739E+00
 -1.11381639E+00  1.19779597E-16  2.15775739E+00 -1.11381639E+00  1.19779597E-16
  2.15775739E+00 -1.11381639E+00  1.19779597E-16  2.15775739E+00 -1.11381639E+00
  1.19779597E-16  2.15775739E+00 -1.11381639E+00  1.19779597E-16  2.15775739E+00
 -1.11381639E+00  1.19779597E-16  2.15775739E+00 -1.11381639E+00  1.19779597E-16
  2.15775739E+00 -1.11381639E+00 -5.98897983E-16 -2.15775739E+00 -1.11381639E+00
 -5.98897983E-16 -2.15775739E+00 -1.11381639E+00 -5.98897983E-16 -2.15775739E+00
 -1.11381639E+00 -5.98897983E-16 -2.15775739E+00 -1.11381639E+00 -5.98897983E-16
 -2.15775739E+00 -1.11381639E+00 -5.98897983E-16 -2.15775739E+00 -1.11381639E+00
 -5.98897983E-16 -2.15775739E+00 -1.11381639E+00 -5.98897983E-16 -2.15775739E+00
 -1.11381639E+00  2.11550291E-16  3.81095124E+00 -1.68575382E-01  2.11550291E-16
  3.81095124E+00 -1.68575382E-01  2.11550291E-16  3.81095124E+00 -1.68575382E-01
  2.11550291E-16  3.81095124E+00 -1.68575382E-01  1.18281239E-16  2.13076537E+00
 -2.99012547E+00  1.18281239E-16  2.13076537E+00 -2.99012547E+00  1.18281239E-16
  2.13076537E+00 -2.99012547E+00  1.18281239E-16  2.13076537E+00 -2.99012547E+00
 -1.05775145E-15 -3.81095124E+00 -1.68575382E-01 -1.05775145E-15 -3.81095124E+00
 -1.68575382E-01 -1.05775145E-15 -3.81095124E+00 -1.68575382E-01 -1.05775145E-15
 -3.81095124E+00 -1.68575382E-01 -5.91406195E-16 -2.13076537E+00 -2.99012547E+00
 -5.91406195E-16 -2.13076537E+00 -2.99012547E+00 -5.91406195E-16 -2.13076537E+00
 -2.99012547E+00 -5.91406195E-16 -2.13076537E+00 -2.99012547E+00
Constraint Structure                       R   N=          24
  9.11391339E-33 -8.53653272E-18  2.11259571E-01  1.11320998E-31 -1.04268638E-16
  2.58040922E+00  1.19779597E-16  2.15775739E+00 -1.11381639E+00 -5.98897983E-16
 -2.15775739E+00 -1.11381639E+00  2.11550291E-16  3.81095124E+00 -1.68575382E-01
  1.18281239E-16  2.13076537E+00 -2.99012547E+00 -1.05775145E-15 -3.81095124E+00
 -1.68575382E-01 -5.91406195E-16 -2.13076537E+00 -2.99012547E+00
Num ILSW                                   I              100
ILSW                                       I   N=         100
           0           1           0           0           2           0
           0           0           0           0           0          -1
           0           0           0           1           0           0
           0           0           1           0           0           0
           1           0           0           0           0           0
           0           0      100000           0          -1           0
           0           0           0           0           0           0
           0           0           0           1           4           0
           0           0           1           0           0           0
           0           0           4          41           0           0
           0           0           0           0           0           0
           0           0           0           0           0           0
           0           0           0           0           0           0
           0           0           0           0           0           0
           0           0           0           0           0           0
           0           0           0           0           0           0
           0           0           0           0
Num RLSW                                   I               41
RLSW                                       R   N=          41
  1.00000000E+00  1.00000000E+00  1.00000000E+00  1.00000000E+00  1.00000000E+00
  0.00000000E+00  0.00000000E+00  1.00000000E+00  0.00000000E+00  0.00000000E+00
  0.00000000E+00  0.00000000E+00  1.00000000E+00  0.00000000E+00  0.00000000E+00
  0.00000000E+00  0.00000000E+00  1.00000000E+00  0.00000000E+00  0.00000000E+00
  0.00000000E+00  0.00000000E+00  1.00000000E+00  0.00000000E+00  0.00000000E+00
  0.00000000E+00  0.00000000E+00  1.00000000E+00  0.00000000E+00  0.00000000E+00
  0.00000000E+00  0.00000000E+00  1.00000000E+00  0.00000000E+00  0.00000000E+00
  0.00000000E+00  0.00000000E+00  0.00000000E+00  1.00000000E+00  1.00000000E+00
  0.00000000E+00
MxBond                                     I                3
NBond                                      I   N=           8
           3           1           3           3           1           1
           1           1
IBond                                      I   N=          24
           2           3           4           1           0           0
           1           5           6           1           7           8
           3           0           0           3           0           0
           4           0           0           4           0           0
RBond                                      R   N=          24
  2.00000000E+00  1.41000000E+00  1.41000000E+00  2.00000000E+00  0.00000000E+00
  0.00000000E+00  1.41000000E+00  1.00000000E+00  1.00000000E+00  1.41000000E+00
  1.00000000E+00  1.00000000E+00  1.00000000E+00  0.00000000E+00  0.00000000E+00
  1.00000000E+00  0.00000000E+00  0.00000000E+00  1.00000000E+00  0.00000000E+00
  0.00000000E+00  1.00000000E+00  0.00000000E+00  0.00000000E+00
Virial Ratio                               R      2.000740337087538E+00
SCF Energy                                 R     -2.240165599738206E+02
MP2 Energy                                 R     -2.246216302478236E+02
MP3 Energy                                 R     -2.246229789633028E+02
MP4D Energy                                R     -2.246361776229574E+02
MP4DQ Energy                               R     -2.246280426971533E+02
MP4SDQ Energy                              R     -2.246391691575506E+02
Cluster Energy                             R     -2.246369240806189E+02
Total Energy                               R     -2.246369240806189E+02
Post-SCF wavefunction norm                 R      1.104054369157772E+00
RMS Density                                R      9.673226220587765E-09
External E-field                           R   N=          35
  0.00000000E+00  0.00000000E+00  0.00000000E+00  0.00000000E+00  0.00000000E+00
  0.00000000E+00  0.00000000E+00  0.00000000E+00  0.00000000E+00  0.00000000E+00
  0.00000000E+00  0.00000000E+00  0.00000000E+00  0.00000000E+00  0.00000000E+00
  0.00000000E+00  0.00000000E+00  0.00000000E+00  0.00000000E+00  0.00000000E+00
  0.00000000E+00  0.00000000E+00  0.00000000E+00  0.00000000E+00  0.00000000E+00
  0.00000000E+00  0.00000000E+00  0.00000000E+00  0.00000000E+00  0.00000000E+00
  0.00000000E+00  0.00000000E+00  0.00000000E+00  0.00000000E+00  0.00000000E+00
IOpCl                                      I                0
IROHF                                      I                0
Alpha Orbital Energies                     R   N=         100
 -2.04836053E+01 -1.55771615E+01 -1.55771338E+01 -1.13785046E+01 -1.37248833E+00
 -1.23258225E+00 -1.18751060E+00 -8.36178040E-01 -7.50113539E-01 -7.39003608E-01
 -6.55694995E-01 -5.97568367E-01 -5.73891069E-01 -4.29280338E-01 -4.21091579E-01
 -4.00479637E-01  2.04963390E-01  2.54086313E-01  2.72547407E-01  2.74502291E-01
  3.18420910E-01  3.43808465E-01  4.04337614E-01  4.33425694E-01  4.38654288E-01
  5.09061641E-01  5.11316256E-01  6.27394254E-01  6.38344827E-01  6.43819044E-01
  6.79744443E-01  7.07463812E-01  7.19999289E-01  7.60388713E-01  7.97806816E-01
  8.16595820E-01  8.60255742E-01  8.67894809E-01  8.91499061E-01  9.51968533E-01
  9.73002312E-01  1.00667514E+00  1.03162837E+00  1.09029272E+00  1.10232859E+00
  1.13872495E+00  1.15552321E+00  1.15827949E+00  1.18079820E+00  1.27705330E+00
  1.36305300E+00  1.37339311E+00  1.43830313E+00  1.47929368E+00  1.50506299E+00
  1.55514503E+00  1.63911988E+00  1.64416920E+00  1.84296569E+00  2.03481225E+00
  2.03788746E+00  2.18363282E+00  2.26675900E+00  2.29960522E+00  2.34488132E+00
  2.34804718E+00  2.37323035E+00  2.47044688E+00  2.53264798E+00  2.55246440E+00
  2.57583120E+00  2.59583045E+00  2.59822180E+00  2.70451129E+00  2.76731912E+00
  2.84973824E+00  2.85674962E+00  2.88265213E+00  2.94245269E+00  3.05629002E+00
  3.07655327E+00  3.19852699E+00  3.24261868E+00  3.25717809E+00  3.31510739E+00
  3.41063300E+00  3.53148034E+00  3.55415408E+00  3.62502225E+00  3.79987373E+00
  3.83480132E+00  3.87853571E+00  3.94713321E+00  4.42192599E+00  4.46033546E+00
  5.55197004E+00  3.13643471E+01  3.47298533E+01  3.48165800E+01  4.37259076E+01
Alpha MO coefficients                      R   N=       10000
  5.95626466E-06 -1.32875892E-04  6.89910617E-04 -4.08432485E-03  0.00000000E+00
  0.00000000E+00  4.48556748E-04  0.00000000E+00  0.00000000E+00 -2.76713757E-04
  0.00000000E+00  0.00000000E+00  1.76008576E-03 -1.31557492E-04 -9.02131496E-05
 -1.85298493E-04  0.00000000E+00  0.00000000E+00  0.00000000E+00  4.35599047E-01
  6.42796581E-01  2.15231207E-02 -6.92152853E-03  0.00000000E+00  0.00000000E+00
 -2.36659576E-03  0.00000000E+00  0.00000000E+00  2.24510678E-03  0.00000000E+00
  0.00000000E+00 -2.97411802E-03  1.61999065E-03  2.05883189E-03  2.67981736E-03
  0.00000000E+00  0.00000000E+00  0.00000000E+00  3.08646643E-06 -1.45129310E-05
  4.72084677E-04 -1.68025718E-04  0.00000000E+00  6.65722050E-05 -3.36123973E-05
  0.00000000E+00 -4.46132201E-04  3.80006752E-04  0.00000000E+00 -5.85629217E-04
 -1.39312485E-03  5.12379913E-04  8.03579904E-04 -3.14611369E-04  0.00000000E+00
  0.00000000E+00  1.15090508E-04  3.08646643E-06 -1.45129310E-05  4.72084677E-04
 -1.68025718E-04  0.00000000E+00 -6.65722050E-05 -3.36123973E-05  0.00000000E+00
  4.46132201E-04  3.80006752E-04  0.00000000E+00  5.85629217E-04 -1.39312485E-03
  5.12379913E-04  8.03579904E-04 -3.14611369E-04  0.00000000E+00  0.00000000E+00
 -1.15090508E-04 -1.20126672E-05 -7.73563279E-06  5.59985639E-04  0.00000000E+00
 -6.39791862E-05  1.03113672E-04  6.58699374E-05  5.64610899E-04 -1.17451126E-03
  0.00000000E+00  1.16638556E-04  1.20124126E-04 -1.20126672E-05 -7.73563279E-06
  5.59985639E-04  0.00000000E+00  6.39791862E-05  1.03113672E-04  6.58699374E-05
  5.64610899E-04 -1.17451126E-03  0.00000000E+00 -1.16638556E-04  1.20124126E-04
  0.00000000E+00  0.00000000E+00  0.00000000E+00  0.00000000E+00  0.00000000E+00
  2.05496701E-04  0.00000000E+00  0.00000000E+00  2.77497150E-04  0.00000000E+00
  0.00000000E+00 -1.82199125E-04  0.00000000E+00  0.00000000E+00  0.00000000E+00
  0.00000000E+00  0.00000000E+00  0.00000000E+00 -1.35980015E-04  0.00000000E+00
  0.00000000E+00  0.00000000E+00  0.00000000E+00  0.00000000E+00 -7.24882776E-06
  0.00000000E+00  0.00000000E+00 -2.95117479E-05  0.00000000E+00  0.00000000E+00
  4.42209052E-05  0.00000000E+00  0.00000000E+00  0.00000000E+00  0.00000000E+00
  0.00000000E+00  0.00000000E+00  6.27831622E-07  3.17368404E-01  4.45327476E-01
  2.33926809E-02 -2.16135896E-02  0.00000000E+00 -1.47451255E-04 -3.49675392E-06
  0.00000000E+00 -4.73551918E-05  9.27259755E-05  0.00000000E+00 -4.06746947E-05
 -9.56197640E-06  5.56225343E-03  5.38652446E-03  5.29947681E-03  0.00000000E+00
  0.00000000E+00 -2.44438975E-05 -3.17368404E-01 -4.45327476E-01 -2.33926809E-02
  2.16135896E-02  0.00000000E+00 -1.47451255E-04  3.49675392E-06  0.00000000E+00
 -4.73551918E-05 -9.27259755E-05  0.00000000E+00 -4.06746947E-05  9.56197640E-06
 -5.56225343E-03 -5.38652446E-03 -5.29947681E-03  0.00000000E+00  0.00000000E+00
 -2.44438975E-05  2.02272464E-04  8.56168282E-05  9.37582869E-05  0.00000000E+00
 -1.13574518E-04 -5.66971485E-05  2.10733199E-04  1.62350589E-04  3.51387209E-05
  0.00000000E+00  5.25251852E-06  1.24672282E-04 -2.02272464E-04 -8.56168282E-05
 -9.37582869E-05  0.00000000E+00 -1.13574518E-04  5.66971485E-05 -2.10733199E-04
 -1.62350589E-04 -3.51387209E-05  0.00000000E+00  5.25251852E-06 -1.24672282E-04
  1.17404939E-05 -1.02468014E-05  3.48713710E-04 -3.00863407E-04  0.00000000E+00
  0.00000000E+00 -1.28808024E-04  0.00000000E+00  0.00000000E+00 -1.38630979E-04
  0.00000000E+00  0.00000000E+00 -1.90050718E-04 -4.63478796E-05  1.23475245E-04
  1.61858530E-05  0.00000000E+00  0.00000000E+00  0.00000000E+00  4.28495884E-06
  3.95129326E-06  2.92389535E-05  1.13380319E-04  0.00000000E+00  0.00000000E+00
  5.04096439E-06  0.00000000E+00  0.00000000E+00  1.98971654E-06  0.00000000E+00
  0.00000000E+00 -1.68754465E-04  7.70950158E-05  5.94791439E-05  1.09334147E-04
  0.00000000E+00  0.00000000E+00  0.00000000E+00  3.17371784E-01  4.45330302E-01
  2.34665842E-02 -2.18414899E-02  0.00000000E+00 -1.48954379E-04 -4.15912039E-06
  0.00000000E+00  6.88891813E-05  8.69180075E-05  0.00000000E+00 -8.38943612E-05
 -4.38710807E-05  5.61819219E-03  5.34816219E-03  5.35896348E-03  0.00000000E+00
  0.00000000E+00 -3.41964106E-05  3.17371784E-01  4.45330302E-01  2.34665842E-02
 -2.18414899E-02  0.00000000E+00  1.48954379E-04 -4.15912039E-06  0.00000000E+00
 -6.88891813E-05  8.69180075E-05  0.00000000E+00  8.38943612E-05 -4.38710807E-05
  5.61819219E-03  5.34816219E-03  5.35896348E-03  0.00000000E+00  0.00000000E+00
  3.41964106E-05  2.14774183E-04  7.87485519E-05  1.47526337E-04  0.00000000E+00
 -1.02539402E-04 -6.38950276E-05  2.22845653E-04  1.37808335E-04  4.22777246E-05
  0.00000000E+00 -9.71849302E-06  1.27279999E-04  2.14774183E-04  7.87485519E-05
  1.47526337E-04  0.00000000E+00  1.02539402E-04 -6.38950276E-05  2.22845653E-04
  1.37808335E-04  4.22777246E-05  0.00000000E+00  9.71849302E-06  1.27279999E-04
  4.67716657E-01  6.12759579E-01  2.20382905E-02  6.57172850E-04  0.00000000E+00
  0.00000000E+00 -1.27098463E-03  0.00000000E+00  0.00000000E+00  1.24372058E-03
  0.00000000E+00  0.00000000E+00 -6.16941598E-04 -1.67388914E-03 -8.10639219E-06
  2.23012046E-04  0.00000000E+00  0.00000000E+00  0.00000000E+00 -1.24291800E-04
 -2.65087916E-04  4.29948258E-04 -1.62100544E-03  0.00000000E+00  0.00000000E+00
 -4.90112934E-04  0.00000000E+00  0.00000000E+00  6.76918052E-04  0.00000000E+00
  0.00000000E+00  2.77238963E-03  1.30664439E-04 -8.78645439E-05 -2.54179145E-03
  0.00000000E+00  0.00000000E+00  0.00000000E+00 -1.32112935E-04 -2.55911252E-04
  5.17877249E-04 -1.21608476E-03  0.00000000E+00 -4.60647535E-04  2.65120152E-04
  0.00000000E+00  1.68497217E-03 -1.10762430E-03  0.00000000E+00  3.52395405E-04
  4.51970236E-04  2.13626438E-04 -1.01181362E-03  3.08768985E-04  0.00000000E+00
  0.00000000E+00  9.30337264E-04 -1.32112935E-04 -2.55911252E-04  5.17877249E-04
 -1.21608476E-03  0.00000000E+00  4.60647535E-04  2.65120152E-04  0.00000000E+00
 -1.68497217E-03 -1.10762430E-03  0.00000000E+00 -3.52395405E-04  4.51970236E-04
  2.13626438E-04 -1.01181362E-03  3.08768985E-04  0.00000000E+00  0.00000000E+00
 -9.30337264E-04 -9.23911532E-05 -2.31926824E-04 -9.18895360E-05  0.00000000E+00
  8.56648877E-05 -4.07908771E-05 -9.97242695E-05 -5.86649862E-04  6.22035770E-04
  0.00000000E+00  1.62979955E-05 -1.27057588E-04 -9.23911532E-05 -2.31926824E-04
 -9.18895360E-05  0.00000000E+00 -8.56648877E-05 -4.07908771E-05 -9.97242695E-05
 -5.86649862E-04  6.22035770E-04  0.00000000E+00 -1.62979955E-05 -1.27057588E-04
 -6.56990911E-02 -1.41061246E-01  3.05780955E-01  1.14517675E-01  0.00000000E+00
  0.00000000E+00  5.12558806E-02  0.00000000E+00  0.00000000E+00  2.16323197E-02
  0.00000000E+00  0.00000000E+00  4.09279947E-02 -2.05763379E-02  1.68354889E-03
  3.14533603E-02  0.00000000E+00  0.00000000E+00  0.00000000E+00 -6.67633392E-02
 -1.61934358E-01  2.85662792E-01  3.11029987E-01  0.00000000E+00  0.00000000E+00
 -8.38586822E-02  0.00000000E+00  0.00000000E+00 -6.11101834E-02  0.00000000E+00
  0.00000000E+00  3.27818948E-02 -7.79148873E-04 -5.02246627E-03 -2.03015679E-02
  0.00000000E+00  0.00000000E+00  0.00000000E+00 -3.43818173E-02 -7.93964156E-02
  1.32460546E-01  1.58101758E-01  0.00000000E+00 -3.19723584E-02  2.19676785E-02
  0.00000000E+00 -3.48921161E-02  1.88466448E-02  0.00000000E+00 -5.98671783E-03
  1.44572082E-02 -1.10385263E-02  1.92066748E-04 -7.69696971E-03  0.00000000E+00
  0.00000000E+00 -9.36330338E-03 -3.43818173E-02 -7.93964156E-02  1.32460546E-01
  1.58101758E-01  0.00000000E+00  3.19723584E-02  2.19676785E-02  0.00000000E+00
  3.48921161E-02  1.88466448E-02  0.00000000E+00  5.98671783E-03  1.44572082E-02
 -1.10385263E-02  1.92066748E-04 -7.69696971E-03  0.00000000E+00  0.00000000E+00
  9.36330338E-03  2.57730975E-02  9.49074881E-03  1.33854019E-02  0.00000000E+00
 -6.92005744E-03 -2.51986260E-03  2.50800506E-02  1.00674651E-02  2.24034926E-02
  0.00000000E+00 -1.64443864E-03  6.89098649E-03  2.57730975E-02  9.49074881E-03
  1.33854019E-02  0.00000000E+00  6.92005744E-03 -2.51986260E-03  2.50800506E-02
  1.00674651E-02  2.24034926E-02  0.00000000E+00  1.64443864E-03  6.89098649E-03
  1.21528488E-02  2.68145465E-02 -5.06967053E-02 -1.00898209E-02  0.00000000E+00
  0.00000000E+00  1.60391165E-01  0.00000000E+00  0.00000000E+00  4.72056238E-02
  0.00000000E+00  0.00000000E+00  1.52632734E-02  3.88896333E-03 -2.27617750E-02
  2.36322004E-02  0.00000000E+00  0.00000000E+00  0.00000000E+00 -6.05027816E-02
 -1.47012444E-01  2.61626477E-01  3.40129287E-01  0.00000000E+00  0.00000000E+00
 -4.89249997E-02  0.00000000E+00  0.00000000E+00 -4.33875968E-02  0.00000000E+00
  0.00000000E+00 -1.37186118E-02  1.09627770E-02  1.21292653E-02  1.78734423E-02
  0.00000000E+00  0.00000000E+00  0.00000000E+00  5.10585142E-02  1.18540446E-01
 -2.12546310E-01 -2.33866105E-01  0.00000000E+00  2.83350322E-02  7.09849789E-03
  0.00000000E+00  3.83281153E-02 -2.23825094E-03  0.00000000E+00  1.04790455E-02
  6.01776880E-03  3.09779701E-03 -1.60816598E-02  1.03336280E-02  0.00000000E+00
  0.00000000E+00  3.84654271E-03  5.10585142E-02  1.18540446E-01 -2.12546310E-01
 -2.33866105E-01  0.00000000E+00 -2.83350322E-02  7.09849789E-03  0.00000000E+00
 -3.83281153E-02 -2.23825094E-03  0.00000000E+00 -1.04790455E-02  6.01776880E-03
  3.09779701E-03 -1.60816598E-02  1.03336280E-02  0.00000000E+00  0.00000000E+00
 -3.84654271E-03 -3.99883614E-02 -1.39629799E-02 -2.60045820E-02  0.00000000E+00
  1.06768445E-02  3.86380373E-03 -5.66873418E-02 -2.54394426E-02 -2.73641864E-02
  0.00000000E+00 -3.18998175E-05 -1.41808931E-02 -3.99883614E-02 -1.39629799E-02
 -2.60045820E-02  0.00000000E+00 -1.06768445E-02  3.86380373E-03 -5.66873418E-02
 -2.54394426E-02 -2.73641864E-02  0.00000000E+00  3.18998175E-05 -1.41808931E-02
  0.00000000E+00  0.00000000E+00  0.00000000E+00  0.00000000E+00  0.00000000E+00
  1.34964873E-01  0.00000000E+00  0.00000000E+00  3.10385675E-02  0.00000000E+00
  0.00000000E+00  2.22756214E-02  0.00000000E+00  0.00000000E+00  0.00000000E+00
  0.00000000E+00  0.00000000E+00  0.00000000E+00 -2.17157906E-02  0.00000000E+00
  0.00000000E+00  0.00000000E+00  0.00000000E+00  0.00000000E+00  2.12673337E-02
  0.00000000E+00  0.00000000E+00  1.89618849E-02  0.00000000E+00  0.00000000E+00
  6.09140133E-03  0.00000000E+00  0.00000000E+00  0.00000000E+00  0.00000000E+00
  0.00000000E+00  0.00000000E+00 -3.64877563E-03 -6.74236324E-02 -1.56709199E-01
  2.82483468E-01  3.11650581E-01  0.00000000E+00 -3.00270253E-03  1.17134517E-02
  0.00000000E+00 -1.47972945E-02  2.22976450E-02  0.00000000E+00 -1.45090857E-02
 -4.28326415E-06 -5.70918905E-03  1.15157429E-02  1.49395975E-03  0.00000000E+00
  0.00000000E+00 -8.09880709E-03  6.74236324E-02  1.56709199E-01 -2.82483468E-01
 -3.11650581E-01  0.00000000E+00 -3.00270253E-03 -1.17134517E-02  0.00000000E+00
 -1.47972945E-02 -2.22976450E-02  0.00000000E+00 -1.45090857E-02  4.28326415E-06
  5.70918905E-03 -1.15157429E-02 -1.49395975E-03  0.00000000E+00  0.00000000E+00
 -8.09880709E-03  7.07677048E-02  1.66009865E-02  5.18406790E-02  0.00000000E+00
 -1.39250273E-02 -7.75296497E-03  6.79263818E-02  2.27152460E-02  4.29996030E-02
  0.00000000E+00 -1.84573670E-04  1.76101236E-02 -7.07677048E-02 -1.66009865E-02
 -5.18406790E-02  0.00000000E+00 -1.39250273E-02  7.75296497E-03 -6.79263818E-02
 -2.27152460E-02 -4.29996030E-02  0.00000000E+00 -1.84573670E-04 -1.76101236E-02