CrystalExplorer Job                                                     
SP        RHF                                                         6-31G(d)            
Number of atoms                            I                9
Info1-9                                    I   N=           9
          15          15           0           0           0         110
           1           1           2
Full Title                                 C   N=           2
CrystalExplorer Job     
Route                                      C   N=           3
#P HF/6-31G(d) 6d 10f NoSymm FChk   
Charge                                     I                0
Multiplicity                               I                1
Number of electrons                        I               26
Number of alpha electrons                  I               13
Number of beta electrons                   I               13
Number of basis functions                  I               57
Number of independent functions            I               57
Number of point charges in /Mol/           I                0
Number of translation vectors              I                0
Atomic numbers                             I   N=           9
           6           6           1           1           1           1
           1           1           8
Nuclear charges                            R   N=           9
  6.00000000E+00  6.00000000E+00  1.00000000E+00  1.00000000E+00  1.00000000E+00
  1.00000000E+00  1.00000000E+00  1.00000000E+00  8.00000000E+00
Current cartesian coordinates              R   N=          27
 -2.44599915E+00  3.00807929E+00 -7.29282353E+00 -3.70796771E+00  3.29549151E+00
 -4.77395655E+00  7.57194364E-01  2.15884581E+00 -8.24883598E+00 -3.27783013E+00
  1.85972862E+00 -8.43180494E+00 -2.52591188E+00  4.44774257E+00 -8.43180494E+00
 -2.92225548E+00  4.62981391E+00 -3.87283686E+00 -3.69011357E+00  1.70366748E+00
 -3.70511422E+00 -5.43140928E+00  3.65443176E+00 -4.90965778E+00  1.40291378E-01
  2.32140950E+00 -6.89944113E+00
Number of symbols in /Mol/                 I                0
Force Field                                I                0
Atom Types                                 C   N=           9
                                                            
                                                
Int Atom Types                             I   N=           9
           0           0           0           0           0           0
           0           0           0
MM charges                                 R   N=           9
  0.00000000E+00  0.00000000E+00  0.00000000E+00  0.00000000E+00  0.00000000E+00
  0.00000000E+00  0.00000000E+00  0.00000000E+00  0.00000000E+00
Integer atomic weights                     I   N=           9
          12          12           1           1           1           1
           1           1          16
Real atomic weights                        R   N=           9
  1.20000000E+01  1.20000000E+01  1.00782504E+00  1.00782504E+00  1.00782504E+00
  1.00782504E+00  1.00782504E+00  1.00782504E+00  1.59949146E+01
Atom fragment info                         I   N=           9
           0           0           0           0           0           0
           0           0           0
Atom residue num                           I   N=           9
           0           0           0           0           0           0
           0           0           0
Nuclear spins                              I   N=           9
           0           0           1           1           1           1
           1           1           0
Nuclear ZEff                               R   N=           9
 -3.60000000E+00 -3.60000000E+00 -1.00000000E+00 -1.00000000E+00 -1.00000000E+00
 -1.00000000E+00 -1.00000000E+00 -1.00000000E+00 -5.60000000E+00
Nuclear ZNuc                               R   N=           9
  6.00000000E+00  6.00000000E+00  1.00000000E+00  1.00000000E+00  1.00000000E+00
  1.00000000E+00  1.00000000E+00  1.00000000E+00  8.00000000E+00
Nuclear QMom                               R   N=           9
  0.00000000E+00  0.00000000E+00  0.00000000E+00  0.00000000E+00  0.00000000E+00
  0.00000000E+00  0.00000000E+00  0.00000000E+00  0.00000000E+00
Nuclear GFac                               R   N=           9
  0.00000000E+00  0.00000000E+00  2.79284600E+00  2.79284600E+00  2.79284600E+00
  2.79284600E+00  2.79284600E+00  2.79284600E+00  0.00000000E+00
MicOpt                                     I   N=           9
          -1          -1          -1          -1          -1          -1
          -1          -1          -1
Number of residues                         I                0
Number of secondary structures             I                0
Number of contracted shells                I               24
Number of primitive shells                 I               57
Pure/Cartesian d shells                    I                1
Pure/Cartesian f shells                    I                1
Highest angular momentum                   I                2
Largest degree of contraction              I                6
Shell types                                I   N=          24
           0          -1          -1           2           0          -1
          -1           2           0           0           0           0
           0           0           0           0           0           0
           0           0           0          -1          -1           2
Number of primitives per shell             I   N=          24
           6           3           1           1           6           3
           1           1           3           1           3           1
           3           1           3           1           3           1
           3           1           6           3           1           1
Shell to atom map                          I   N=          24
           1           1           1           1           2           2
           2           2           3           3           4           4
           5           5           6           6           7           7
           8           8           9           9           9           9
Primitive exponents                        R   N=          57
  3.04752488E+03  4.57369518E+02  1.03948685E+02  2.92101553E+01  9.28666296E+00
  3.16392696E+00  7.86827235E+00  1.88128854E+00  5.44249258E-01  1.68714478E-01
  8.00000000E-01  3.04752488E+03  4.57369518E+02  1.03948685E+02  2.92101553E+01
  9.28666296E+00  3.16392696E+00  7.86827235E+00  1.88128854E+00  5.44249258E-01
  1.68714478E-01  8.00000000E-01  1.87311370E+01  2.82539436E+00  6.40121692E-01
  1.61277759E-01  1.87311370E+01  2.82539436E+00  6.40121692E-01  1.61277759E-01
  1.87311370E+01  2.82539436E+00  6.40121692E-01  1.61277759E-01  1.87311370E+01
  2.82539436E+00  6.40121692E-01  1.61277759E-01  1.87311370E+01  2.82539436E+00
  6.40121692E-01  1.61277759E-01  1.87311370E+01  2.82539436E+00  6.40121692E-01
  1.61277759E-01  5.48467166E+03  8.25234946E+02  1.88046958E+02  5.29645000E+01
  1.68975704E+01  5.79963534E+00  1.55396162E+01  3.59993359E+00  1.01376175E+00
  2.70005823E-01  8.00000000E-01
Contraction coefficients                   R   N=          57
  1.83473713E-03  1.40373228E-02  6.88426223E-02  2.32184443E-01  4.67941348E-01
  3.62311985E-01 -1.19332420E-01 -1.60854152E-01  1.14345644E+00  1.00000000E+00
  1.00000000E+00  1.83473713E-03  1.40373228E-02  6.88426223E-02  2.32184443E-01
  4.67941348E-01  3.62311985E-01 -1.19332420E-01 -1.60854152E-01  1.14345644E+00
  1.00000000E+00  1.00000000E+00  3.34946043E-02  2.34726953E-01  8.13757326E-01
  1.00000000E+00  3.34946043E-02  2.34726953E-01  8.13757326E-01  1.00000000E+00
  3.34946043E-02  2.34726953E-01  8.13757326E-01  1.00000000E+00  3.34946043E-02
  2.34726953E-01  8.13757326E-01  1.00000000E+00  3.34946043E-02  2.34726953E-01
  8.13757326E-01  1.00000000E+00  3.34946043E-02  2.34726953E-01  8.13757326E-01
  1.00000000E+00  1.83107443E-03  1.39501722E-02  6.84450781E-02  2.32714336E-01
  4.70192898E-01  3.58520853E-01 -1.10777550E-01 -1.48026263E-01  1.13076702E+00
  1.00000000E+00  1.00000000E+00
P(S=P) Contraction coefficients            R   N=          57
  0.00000000E+00  0.00000000E+00  0.00000000E+00  0.00000000E+00  0.00000000E+00
  0.00000000E+00  6.89990666E-02  3.16423961E-01  7.44308291E-01  1.00000000E+00
  0.00000000E+00  0.00000000E+00  0.00000000E+00  0.00000000E+00  0.00000000E+00
  0.00000000E+00  0.00000000E+00  6.89990666E-02  3.16423961E-01  7.44308291E-01
  1.00000000E+00  0.00000000E+00  0.00000000E+00  0.00000000E+00  0.00000000E+00
  0.00000000E+00  0.00000000E+00  0.00000000E+00  0.00000000E+00  0.00000000E+00
  0.00000000E+00  0.00000000E+00  0.00000000E+00  0.00000000E+00  0.00000000E+00
  0.00000000E+00  0.00000000E+00  0.00000000E+00  0.00000000E+00  0.00000000E+00
  0.00000000E+00  0.00000000E+00  0.00000000E+00  0.00000000E+00  0.00000000E+00
  0.00000000E+00  0.00000000E+00  0.00000000E+00  0.00000000E+00  0.00000000E+00
  0.00000000E+00  0.00000000E+00  7.08742682E-02  3.39752839E-01  7.27158577E-01
  1.00000000E+00  0.00000000E+00
Coordinates of each shell                  R   N=          72
 -2.44599915E+00  3.00807929E+00 -7.29282353E+00 -2.44599915E+00  3.00807929E+00
 -7.29282353E+00 -2.44599915E+00  3.00807929E+00 -7.29282353E+00 -2.44599915E+00
  3.00807929E+00 -7.29282353E+00 -3.70796771E+00  3.29549151E+00 -4.77395655E+00
 -3.70796771E+00  3.29549151E+00 -4.77395655E+00 -3.70796771E+00  3.29549151E+00
 -4.77395655E+00 -3.70796771E+00  3.29549151E+00 -4.77395655E+00  7.57194364E-01
  2.15884581E+00 -8.24883598E+00  7.57194364E-01  2.15884581E+00 -8.24883598E+00
 -3.27783013E+00  1.85972862E+00 -8.43180494E+00 -3.27783013E+00  1.85972862E+00
 -8.43180494E+00 -2.52591188E+00  4.44774257E+00 -8.43180494E+00 -2.52591188E+00
  4.44774257E+00 -8.43180494E+00 -2.92225548E+00  4.62981391E+00 -3.87283686E+00
 -2.92225548E+00  4.62981391E+00 -3.87283686E+00 -3.69011357E+00  1.70366748E+00
 -3.70511422E+00 -3.69011357E+00  1.70366748E+00 -3.70511422E+00 -5.43140928E+00
  3.65443176E+00 -4.90965778E+00 -5.43140928E+00  3.65443176E+00 -4.90965778E+00
  1.40291378E-01  2.32140950E+00 -6.89944113E+00  1.40291378E-01  2.32140950E+00
 -6.89944113E+00  1.40291378E-01  2.32140950E+00 -6.89944113E+00  1.40291378E-01
  2.32140950E+00 -6.89944113E+00
Constraint Structure                       R   N=          27
 -2.44599915E+00  3.00807929E+00 -7.29282353E+00 -3.70796771E+00  3.29549151E+00
 -4.77395655E+00  7.57194364E-01  2.15884581E+00 -8.24883598E+00 -3.27783013E+00
  1.85972862E+00 -8.43180494E+00 -2.52591188E+00  4.44774257E+00 -8.43180494E+00
 -2.92225548E+00  4.62981391E+00 -3.87283686E+00 -3.69011357E+00  1.70366748E+00
 -3.70511422E+00 -5.43140928E+00  3.65443176E+00 -4.90965778E+00  1.40291378E-01
  2.32140950E+00 -6.89944113E+00
Num ILSW                                   I              100
ILSW                                       I   N=         100
           0           1           0           0           2           0
           0           0           3           0           0          -1
           0           0           0           1           0           0
           0           0           0           0           0           0
           1           1           0           0           0           0
           0           0      100000           0          -1           0
           0           0           0           0           0           0
           0           0           0           1           0           0
           0           0           1           0           0           0
           0           0           4          41           0           0
           0           0           0           0           0           0
           0           0           0           9           0           0
           0           0           0           0           0           0
           0           0           0           0           0           0
           0           0           0           0           0           0
           0           0           0           0           0           0
           0           0           0           0
Num RLSW                                   I               41
RLSW                                       R   N=          41
  1.00000000E+00  1.00000000E+00  1.00000000E+00  1.00000000E+00  1.00000000E+00
  0.00000000E+00  0.00000000E+00  1.00000000E+00  0.00000000E+00  0.00000000E+00
  0.00000000E+00  0.00000000E+00  1.00000000E+00  0.00000000E+00  0.00000000E+00
  0.00000000E+00  0.00000000E+00  1.00000000E+00  0.00000000E+00  0.00000000E+00
  0.00000000E+00  0.00000000E+00  1.00000000E+00  0.00000000E+00  0.00000000E+00
  0.00000000E+00  0.00000000E+00  1.00000000E+00  0.00000000E+00  0.00000000E+00
  0.00000000E+00  0.00000000E+00  1.00000000E+00  0.00000000E+00  0.00000000E+00
  0.00000000E+00  0.00000000E+00  0.00000000E+00  1.00000000E+00  1.00000000E+00
  0.00000000E+00
MxBond                                     I                4
NBond                                      I   N=           9
           4           4           1           1           1           1
           1           1           2
IBond                                      I   N=          36
           2           4           5           9           1           6
           7           8           9           0           0           0
           1           0           0           0           1           0
           0           0           2           0           0           0
           2           0           0           0           2           0
           0           0           1           3           0           0
RBond                                      R   N=          36
  1.00000000E+00  1.00000000E+00  1.00000000E+00  1.00000000E+00  1.00000000E+00
  2.00000000E+00  1.00000000E+00  2.00000000E+00  2.00000000E+00  0.00000000E+00
  0.00000000E+00  0.00000000E+00  1.00000000E+00  0.00000000E+00  0.00000000E+00
  0.00000000E+00  1.00000000E+00  0.00000000E+00  0.00000000E+00  0.00000000E+00
  2.00000000E+00  0.00000000E+00  0.00000000E+00  0.00000000E+00  1.00000000E+00
  0.00000000E+00  0.00000000E+00  0.00000000E+00  2.00000000E+00  0.00000000E+00
  0.00000000E+00  0.00000000E+00  1.00000000E+00  2.00000000E+00  0.00000000E+00
  0.00000000E+00
Virial Ratio                               R      1.991381232666973E+00
SCF Energy                                 R     -1.539604521892985E+02
Total Energy                               R     -1.539604521892985E+02
RMS Density                                R      5.312103947216673E-09
External E-field                           R   N=          35
  0.00000000E+00  0.00000000E+00  0.00000000E+00  0.00000000E+00  0.00000000E+00
  0.00000000E+00  0.00000000E+00  0.00000000E+00  0.00000000E+00  0.00000000E+00
  0.00000000E+00  0.00000000E+00  0.00000000E+00  0.00000000E+00  0.00000000E+00
  0.00000000E+00  0.00000000E+00  0.00000000E+00  0.00000000E+00  0.00000000E+00
  0.00000000E+00  0.00000000E+00  0.00000000E+00  0.00000000E+00  0.00000000E+00
  0.00000000E+00  0.00000000E+00  0.00000000E+00  0.00000000E+00  0.00000000E+00
  0.00000000E+00  0.00000000E+00  0.00000000E+00  0.00000000E+00  0.00000000E+00
IOpCl                                      I                0
IROHF                                      I                0
Alpha Orbital Energies                     R   N=          57
 -2.05286369E+01 -1.12402763E+01 -1.11671330E+01 -1.39573479E+00 -1.05318882E+00
 -9.01933820E-01 -7.40566826E-01 -6.57733802E-01 -5.80326060E-01 -5.63570928E-01
 -5.41600912E-01 -5.15161784E-01 -4.41421853E-01  2.46953879E-01  2.78130927E-01
  3.27469024E-01  3.44415070E-01  3.56547631E-01  3.72774855E-01  4.11218216E-01
  4.32233965E-01  7.06359798E-01  7.23590225E-01  7.55877199E-01  8.21624468E-01
  8.68443252E-01  9.60879296E-01  1.18031877E+00  1.21145891E+00  1.23260017E+00
  1.25800020E+00  1.28481681E+00  1.31089013E+00  1.34616246E+00  1.36818614E+00
  1.41869134E+00  1.50290241E+00  1.66232564E+00  1.72090850E+00  1.82790992E+00
  1.93462438E+00  2.02663361E+00  2.06699544E+00  2.18373952E+00  2.30262515E+00
  2.42028731E+00  2.56737964E+00  2.65724557E+00  2.82241220E+00  2.88218478E+00
  2.90121032E+00  3.00863787E+00  3.02934420E+00  3.31934668E+00  4.19882341E+00
  4.67062307E+00  4.87306625E+00
Alpha MO coefficients                      R   N=        3249
 -1.74343883E-05  2.04457999E-04  3.51400825E-04 -9.45377074E-05  8.21580335E-05
  1.20820095E-04 -5.63588479E-05  1.88637167E-05 -2.16707861E-04  1.11813701E-04
 -2.06978594E-05 -3.39405961E-05 -4.44004208E-05  3.19416206E-05 -8.92683212E-06
  5.36271246E-06  6.40678382E-05  2.64316619E-05 -8.43722405E-06 -3.31656744E-07
  7.80023411E-05 -2.72651780E-04  5.67843911E-05 -1.43717904E-05 -2.89264860E-05
 -1.14420543E-05 -8.01956905E-06  5.06487099E-06  2.95848641E-05 -9.20526076E-06
  5.07907535E-05 -2.85441937E-04 -5.22132536E-05 -1.13748524E-04 -5.54836806E-05
 -1.12327939E-04  3.74356018E-05  1.18516097E-05  3.04949131E-05  4.22987988E-06
 -1.26865020E-05 -2.19051317E-04  9.94510351E-01  2.15022342E-02 -3.82307449E-04
  1.00408131E-04 -1.40473770E-03  4.49034737E-03  2.95541002E-04 -7.83836130E-05
  4.18565326E-04 -4.44200101E-03 -4.17329914E-03 -4.04624428E-03  8.68808782E-05
 -1.36425362E-04  3.50662736E-05  9.95625419E-01  2.91819720E-02  5.45521152E-04
 -1.51276360E-04 -2.86128598E-04 -1.59886236E-02  8.28566109E-04 -1.87103187E-04
  4.91522716E-04 -1.98285196E-03 -1.85228433E-03 -1.87842453E-03  6.39170931E-05
  9.82593452E-05 -1.51698959E-05  4.47558094E-03  1.61505617E-04 -8.62802161E-06
 -5.05910891E-06  4.22832517E-06  3.38765104E-03  6.06179624E-04 -1.21055692E-04
 -1.77931078E-03 -1.89401258E-04 -1.19493927E-04 -2.96781165E-04  2.43103430E-05
  1.73568859E-04 -4.50284741E-05  1.62633464E-05  2.53996322E-04  2.37406140E-04
  3.50134438E-03  2.23785120E-04  3.42611191E-03 -1.35338727E-04  2.32837883E-04
 -1.41698174E-04  2.42241783E-04 -1.27197533E-04 -7.06450450E-05 -1.59715181E-04
  6.00770241E-05 -1.37862715E-04  4.03695798E-05 -2.14454161E-05  1.84096673E-03
 -1.26026284E-04  7.50427705E-06 -5.88826128E-06 -7.42237140E-04 -3.81908078E-05
 -7.27195518E-05  2.41755644E-04 -5.73462071E-05  2.01024360E-05 -4.77588797E-03
 -2.42480091E-05 -7.61605862E-05  4.56835204E-05  3.02702792E-05  3.76880271E-03
 -1.15147882E-03  7.33461193E-05  1.35172983E-03 -2.22948532E-04 -6.47736569E-05
 -3.67367801E-04  5.27334432E-05  1.04047781E-04 -2.78709583E-05  9.95377338E-01
  3.10742172E-02 -1.74561883E-04  1.07069576E-04  1.62299922E-05 -1.78226163E-02
  1.03000289E-04 -6.58542774E-05  3.08168686E-04 -2.22966599E-03 -2.36220314E-03
 -2.55646089E-03  3.79726153E-05  1.08521366E-04  5.01489987E-05  8.16404879E-05
  3.19715527E-04 -1.59099589E-04 -2.31543501E-04 -1.38944169E-04  8.57391842E-06
  2.06364080E-04  3.41258269E-03  2.36634922E-04  3.06780717E-03  1.85201239E-04
  3.54390072E-03 -1.47024513E-05 -1.42603521E-04  7.58746886E-05 -1.97449529E-05
 -5.69375399E-05  1.56077142E-04 -3.30294594E-04  1.08883688E-04  2.63692608E-04
  2.31007823E-05 -1.24950808E-04 -3.83688518E-05 -5.51251504E-05 -5.69764496E-05
  6.82651208E-06 -6.26352467E-02  1.12997209E-01  7.81597287E-02 -2.05521563E-02
  1.89877796E-03  3.86044617E-02  8.32954961E-03 -1.78148781E-03 -1.32830079E-02
  2.13141796E-02 -2.76228977E-03 -4.42791935E-03 -7.86810571E-03  1.90994054E-03
 -6.03115355E-04 -1.20739685E-02  2.20239842E-02  1.21285931E-02 -2.50888512E-03
 -1.24536822E-02  2.05833203E-02 -1.45834394E-03 -9.65841455E-05 -8.69560722E-03
  1.75803222E-03  1.53233151E-04  3.15013094E-03 -3.01972761E-04 -2.49657038E-03
  6.11529174E-04  1.80888084E-01 -5.07426365E-03  2.62456058E-02  5.10494089E-04
  2.65517840E-02  5.52258604E-04  5.92423560E-03  3.89848487E-03  4.89165334E-03
  3.31893320E-03  3.09620911E-03 -4.94855535E-03 -2.02145061E-01  4.56766828E-01
 -9.88098902E-03  2.98897004E-03 -1.20748077E-01  3.82426493E-01 -1.89539855E-02
  5.19511659E-03 -3.26003885E-02  1.34539922E-02  4.10998057E-04  2.45550653E-02
 -4.28963644E-03 -6.39479818E-03  1.65944493E-03 -1.26161683E-01  2.43330685E-01
 -7.34726160E-02  1.83129837E-02  3.32110097E-02  1.74971315E-01 -2.61521406E-02
  8.71764057E-03  7.51926423E-03 -5.62680733E-03  1.89225650E-03  1.63441140E-02
  3.16858801E-03 -2.86144910E-03  7.14653571E-04 -1.58373658E-01  2.93782848E-01
  3.78676634E-04  9.64856927E-03 -3.11460229E-02  2.22063566E-01 -4.98630326E-03
  4.59985448E-05 -2.57446038E-03  7.56273975E-03  5.09546804E-03  8.22512257E-03
  1.51848007E-03 -1.69338162E-03  8.25730606E-04 -8.46556409E-02 -7.97580869E-03
  9.10690445E-02  1.70088887E-02  8.87570806E-02  1.53005993E-02  1.08521308E-01
  1.88143998E-02  9.48362664E-02  1.64329227E-02  1.15891120E-01  1.76914909E-02
  3.99436061E-02 -9.24756817E-02 -9.88910404E-02  2.62721184E-02  6.49329416E-02
 -9.24699633E-02 -4.61956066E-02  1.20472716E-02  1.85368311E-02  8.49507912E-03
 -2.62682881E-04 -1.02872927E-02 -2.81681253E-03  8.43837305E-03 -2.20123678E-03
 -1.30374737E-01  2.59739723E-01 -1.19455424E-02  2.34743090E-03 -1.61690500E-01
  1.98618495E-01 -1.30646240E-02  3.27483089E-03 -5.95368703E-02 -5.46861877E-03
  1.02115452E-02  2.15604840E-03  5.89214025E-03  1.41135394E-02 -3.77407508E-03
  1.18275727E-01 -2.24140161E-01  6.07595723E-02 -2.52775990E-02 -1.13888885E-01
 -1.85463139E-01  2.03522303E-02 -4.97971827E-03 -3.65389759E-02 -9.50448061E-03
 -1.03949980E-02  9.22549336E-03 -2.10551550E-03 -8.83337647E-03  1.73810224E-03
 -7.74346403E-02 -1.79036759E-02  1.52942074E-01  4.58502696E-02  1.50380171E-01
  4.53639619E-02 -1.17819734E-01 -3.56276965E-02 -1.06842083E-01 -3.28784293E-02
 -1.21279426E-01 -4.02205053E-02  3.18140001E-02 -7.77084421E-02 -1.43840760E-01
  3.83308110E-02  2.79568898E-02 -7.43024906E-02 -8.04997932E-02  2.14764257E-02
  6.42727774E-03  9.60235628E-03 -2.00229183E-03 -8.87515979E-03 -3.82215397E-03
  1.39376410E-02 -3.74131510E-03  1.77404756E-03 -2.79977278E-03  1.76483791E-01
 -3.55400939E-02  2.02226727E-01 -1.99526870E-02  4.31411723E-02 -8.78929655E-03
  8.91613786E-02  1.73568519E-02 -1.19779464E-02 -6.71126729E-03 -1.06439231E-02
  7.78693465E-03 -2.84572447E-03  1.26145594E-02 -1.96184160E-02  1.38830539E-01
 -1.98120753E-02 -4.85756586E-03 -4.27483789E-02  4.45418394E-02 -6.03733596E-03
  3.78290951E-03 -5.86550878E-03  2.18974762E-03  2.17220122E-03  2.70793667E-03
 -4.46855770E-03  1.72281560E-03 -2.22303662E-01 -6.95769564E-02 -9.75974429E-02
 -4.22877867E-02 -8.44472901E-02 -3.47967787E-02  1.50156217E-02  1.31489917E-02
  7.55828930E-04  7.05457731E-03 -8.77798882E-02 -4.64138659E-02 -4.28456027E-02
  9.38413032E-02 -2.65273185E-01  7.44646758E-02  3.48000810E-01  1.91826342E-01
 -1.43791934E-01  4.08027834E-02  1.76953659E-01  1.88279606E-02  5.93931890E-03
 -3.16263878E-02 -4.53609885E-03  1.09260355E-02 -3.04245932E-03 -5.92416808E-04
 -2.30419371E-04  8.82501447E-02  3.35248060E-01 -1.18655286E-02  6.44575859E-03
  3.28838616E-02  1.19626545E-01 -4.55382647E-03 -5.12453361E-03  4.50308834E-03
  1.29246126E-03 -5.21596444E-03 -6.19103167E-03 -1.95576193E-02 -4.75676918E-04
  2.56740028E-03  1.01109953E-01  2.46026736E-01  2.53159833E-02 -4.65583971E-03
  3.88032799E-02  1.06006756E-01  9.20236530E-03 -3.47677093E-04 -1.90334049E-04
 -9.76216968E-04  1.06020497E-02  3.23592170E-03  1.04090039E-02  1.72498486E-02
  5.76303794E-03 -1.50928452E-01 -1.13530743E-01  1.64295094E-01  1.21890881E-01
  1.43800030E-01  8.12828544E-02 -1.09987815E-01 -6.63000804E-02 -2.92957893E-02
 -1.87417704E-02  6.36959891E-03 -1.35541759E-02  6.74534726E-02  2.11253947E-01
 -3.55560983E-02 -3.00310853E-02  4.42830392E-02  1.39200132E-01 -2.11719546E-02
 -4.76403941E-03  3.21825512E-03  3.21240013E-03 -7.16238014E-03 -3.47551832E-03
 -1.26369111E-02 -1.88394812E-03  2.04657106E-03  8.99438096E-02 -1.10967784E-01
 -6.95395983E-02 -3.01868523E-03  4.89768635E-02 -5.04727970E-02 -5.38462672E-02
 -5.95508119E-04  1.01767837E-03  2.84941748E-03 -6.57324421E-04  3.88594312E-03
  7.90653855E-03 -8.55491721E-03  1.46931641E-02  3.01616776E-01 -2.76060073E-03
  2.54372362E-01  6.27422695E-02  1.16671322E-01  1.51630850E-03  1.11194195E-01
 -2.51390928E-02  2.23063765E-02  5.52872933E-03  1.55124540E-02  5.17962184E-03
  5.46483628E-03  6.94420458E-02  2.00100453E-02  4.96213880E-02  3.88784653E-02
 -3.25405144E-02 -3.45583352E-02  1.76020688E-01  1.15400326E-01  1.06064464E-01
  7.46541224E-02 -2.00934105E-01 -1.67572059E-01  4.23391480E-02 -9.12523175E-02
 -1.29790312E-01 -6.27222704E-02 -2.44730421E-01 -1.96806864E-01 -9.13506293E-02
 -4.50664205E-02 -1.63715571E-01  4.51955496E-04 -5.62109233E-03  1.91162895E-02
  9.90092324E-04  1.13753724E-02  2.74407460E-03  1.76610197E-02 -3.82926840E-02
  2.70164614E-01  4.00028921E-02 -1.63323287E-01 -7.48765724E-02  1.16934880E-01
  2.39718457E-02 -9.96541125E-02  2.22780393E-02 -2.26189003E-03 -1.65116556E-02
 -5.98597658E-03  4.21437466E-03 -1.47776707E-02  6.90886762E-03 -1.69243659E-02
 -2.69257959E-01 -1.23093822E-01  1.73811376E-01  1.07586669E-02 -1.21876962E-01
 -6.71373956E-02  6.98052373E-02  1.45090709E-02  1.57200124E-03 -1.46722474E-02
 -7.91449967E-03  2.62346379E-03 -1.74954081E-02 -4.27785599E-02 -3.65878777E-02
 -5.74897207E-02 -5.34916676E-02  5.53533023E-02  4.58544030E-02 -8.94682258E-02
 -6.21501094E-02  1.13793089E-01  7.61528332E-02  1.38484477E-01  9.80764729E-02
  1.01439058E-02 -2.80778391E-02 -2.55138330E-01  2.10159959E-01 -9.71799048E-02
 -2.50048026E-02 -1.80152323E-01  1.49934431E-01 -7.34886155E-02  3.45542949E-03
 -3.60808177E-03  2.60713803E-04 -6.19324427E-03  2.14986425E-02 -1.43006302E-02
  1.17434642E-02 -2.58444545E-02  7.99038097E-02 -1.64815308E-01 -8.01201598E-02
 -4.81863321E-02  3.02569549E-02 -8.65534665E-02 -4.70630920E-02  1.16576928E-02
  9.60816315E-05 -1.05233644E-02 -1.02520928E-02  8.48156335E-03  1.79315510E-02
  6.71973438E-03 -1.18574996E-02 -1.42994047E-01  3.60287877E-01  2.32120800E-02
 -2.63496123E-02 -5.75506333E-02  1.91550318E-01  1.25160904E-03  1.85400687E-02
 -8.23376327E-03 -1.34410174E-02 -8.90586403E-04  9.81651190E-03  2.62911394E-02
 -4.01709673E-02 -2.74775115E-02  6.60146891E-02  6.15976228E-02 -7.81411858E-02
 -7.33034287E-02  1.35237093E-01  9.04878694E-02 -2.07599238E-01 -1.56724148E-01
  1.38122496E-01  1.13335475E-01 -4.93594240E-03  7.31051475E-03 -2.12132762E-01
 -1.91113774E-01 -4.38258968E-03  3.53675720E-02 -1.53672379E-01 -1.41034555E-01
 -7.58752791E-03  5.18894365E-03 -4.22507546E-03 -4.03906767E-03  2.61365489E-03
  1.57160631E-02  1.06442141E-02  2.48966238E-02 -5.59528857E-02 -5.56025978E-02
  1.06452709E-02 -3.23000865E-01 -4.02944886E-02 -2.17888041E-02  3.89855739E-03
 -1.16959814E-01 -1.95977468E-02  1.30012373E-02  4.92611172E-03  1.03544096E-02
  2.54957226E-02 -5.23658827E-03  1.71941985E-02 -3.15396844E-02 -3.49440715E-02
  2.32338233E-02  2.85678724E-01 -9.68325171E-02  7.17278247E-03  2.69717083E-03
  1.57795090E-01 -5.88416991E-03  1.28768547E-02 -6.45183398E-03  5.61178339E-03
  1.24890246E-02 -2.17483452E-03 -1.07005850E-01 -4.43004125E-02  1.18098273E-01
  1.03451403E-01  1.09250462E-01  9.41176896E-02  8.33804445E-02  7.77164654E-02
  7.69617407E-02  7.14191626E-02 -1.06577695E-02  1.25616230E-02 -4.67226295E-02
  1.01796819E-01  1.73923834E-01 -5.99428548E-02  3.53848714E-01  2.25575978E-01
  1.40662558E-01 -4.78436558E-02  2.57693466E-01 -9.55307972E-04  8.57126835E-03
 -2.43810370E-02  3.29981895E-03 -7.49292581E-03  2.86384511E-03  1.60897943E-03
 -2.89591029E-03 -6.46109319E-02 -2.65092662E-01 -1.04185233E-02 -9.72570931E-03
 -1.91872950E-02 -9.31330526E-02 -4.58968315E-03  1.42730346E-02 -1.39018418E-02
 -2.60506040E-04  2.56688222E-02  9.19894860E-03  3.07997415E-02  2.93375913E-04
  5.99320539E-04  1.29143610E-02  8.10291632E-02  6.96101632E-03 -9.60681332E-03
 -2.45755843E-03  1.55258746E-02  2.85543583E-03  8.86117682E-04 -5.23954078E-04
 -6.84240245E-04  1.29196286E-03  4.02507249E-03  1.39266079E-02 -2.66203613E-03
 -2.45459232E-03  1.72810584E-01  1.95343905E-01 -1.73858039E-01 -1.94704847E-01
  5.60250194E-02  8.63622377E-02 -5.43154783E-02 -8.33176509E-02  2.75400862E-03
  3.64538333E-03 -9.25258872E-04  1.87681669E-03  1.24695891E-01  5.13441603E-01
  3.16523272E-04  5.46039101E-03  1.04804449E-01  4.29157835E-01  4.51730521E-05
 -3.65913257E-04  3.40305135E-04 -2.65948755E-04 -8.69222627E-04 -6.00144164E-03
 -2.57739905E-02 -7.36864740E-02  1.19919518E-02 -1.22297058E-01  3.98496305E-02
 -1.12654284E-01  1.87736706E+00 -4.85107820E-01  1.56963320E-01 -5.85882083E-01
 -5.24355030E-03 -1.41016713E-02 -1.18797257E-02 -2.67324457E-03  7.60339895E-03
 -1.97857510E-03 -3.17908007E-02  1.51752052E-02 -3.88061115E-02  1.44698975E-02
  5.77463281E-02  7.58705168E-01 -1.19763477E-01  5.23946850E-02  4.25987012E-01
 -1.38292093E-02 -5.51028887E-03  5.23421025E-03  2.14821759E-03  6.87362756E-04
 -1.33385613E-03 -1.75051062E-02 -1.21124774E+00  2.76640805E-02 -1.11338399E+00
  2.34849720E-02 -1.14172352E+00  1.45111287E-02 -4.26496445E-01  2.31900366E-02
 -3.32492193E-01 -1.05208766E-02 -5.27248221E-01 -6.66824033E-02  4.22563534E-02
  2.47812900E-02 -5.82944207E-03 -9.78428030E-02  1.02015560E+00  1.27953995E-01
 -3.48090049E-02 -2.97603511E-01 -3.82650952E-02 -4.74636490E-02 -2.58706218E-02
 -3.10308843E-03 -6.30010768E-03  1.57120777E-03 -3.15716341E-02  5.69692685E-02
  8.32062474E-02 -3.80709675E-02 -4.14541032E-02  5.07902173E-01  4.05373461E-01
 -1.29699951E-01 -5.86241603E-01 -1.16587522E-02 -1.89044713E-03  1.63492837E-02
  4.16570483E-03 -6.41834848E-03 -1.73432608E-03 -1.14673100E-01  4.09747176E-02
 -4.36616465E-02 -1.85454589E-02  5.08119616E-02  2.81686741E+00 -7.49804471E-02
 -8.75832123E-02  3.15638779E-01 -8.75954175E-04 -1.69656115E-02 -1.58992967E-02
 -3.16369987E-03 -7.43492302E-03  3.76976344E-03  4.88232157E-03  8.00714075E-01
  7.52075992E-03 -5.35456692E-01  2.19847705E-02 -3.94583119E-01 -3.42799018E-04