CrystalExplorer Job                                                     
SP        RHF                                                         6-31G(d,p)          
Number of atoms                            I                6
Info1-9                                    I   N=           9
          12          12           0           0           0         110
           1           1           2
Full Title                                 C   N=           2
CrystalExplorer Job     
Route                                      C   N=           3
#P HF/6-31G(d,p) 6d 10f NoSymm FChk 
Charge                                     I                0
Multiplicity                               I                1
Number of electrons                        I               24
Number of alpha electrons                  I               12
Number of beta electrons                   I               12
Number of basis functions                  I               60
Number of independent functions            I               60
Number of point charges in /Mol/           I                0
Number of translation vectors              I                0
Atomic numbers                             I   N=           6
           8           6           7           1           1           1
Nuclear charges                            R   N=           6
  8.00000000E+00  6.00000000E+00  7.00000000E+00  1.00000000E+00  1.00000000E+00
  1.00000000E+00
Current cartesian coordinates              R   N=          18
  2.61446067E+00 -1.17374103E+00  3.23066446E+00  1.66558194E+00  9.65302344E-01
  3.35282014E+00  1.75382837E+00  2.67551394E+00  1.54645549E+00  6.64907699E-01
  1.56413199E+00  5.03468962E+00  9.99360878E-01  4.39802388E+00  1.86133489E+00
  2.58299484E+00  2.25710212E+00 -1.18778736E-01
Number of symbols in /Mol/                 I                0
Force Field                                I                0
Atom Types                                 C   N=           6
                                                            
            
Int Atom Types                             I   N=           6
           0           0           0           0           0           0
MM charges                                 R   N=           6
  0.00000000E+00  0.00000000E+00  0.00000000E+00  0.00000000E+00  0.00000000E+00
  0.00000000E+00
Integer atomic weights                     I   N=           6
          16          12          14           1           1           1
Real atomic weights                        R   N=           6
  1.59949146E+01  1.20000000E+01  1.40030740E+01  1.00782504E+00  1.00782504E+00
  1.00782504E+00
Atom fragment info                         I   N=           6
           0           0           0           0           0           0
Atom residue num                           I   N=           6
           0           0           0           0           0           0
Nuclear spins                              I   N=           6
           0           0           2           1           1           1
Nuclear ZEff                               R   N=           6
 -5.60000000E+00 -3.60000000E+00 -4.55000000E+00 -1.00000000E+00 -1.00000000E+00
 -1.00000000E+00
Nuclear ZNuc                               R   N=           6
  8.00000000E+00  6.00000000E+00  7.00000000E+00  1.00000000E+00  1.00000000E+00
  1.00000000E+00
Nuclear QMom                               R   N=           6
  0.00000000E+00  0.00000000E+00  2.04400000E+00  0.00000000E+00  0.00000000E+00
  0.00000000E+00
Nuclear GFac                               R   N=           6
  0.00000000E+00  0.00000000E+00  4.03761000E-01  2.79284600E+00  2.79284600E+00
  2.79284600E+00
MicOpt                                     I   N=           6
          -1          -1          -1          -1          -1          -1
Number of residues                         I                0
Number of secondary structures             I                0
Number of contracted shells                I               21
Number of primitive shells                 I               48
Pure/Cartesian d shells                    I                1
Pure/Cartesian f shells                    I                1
Highest angular momentum                   I                2
Largest degree of contraction              I                6
Shell types                                I   N=          21
           0          -1          -1           2           0          -1
          -1           2           0          -1          -1           2
           0           0           1           0           0           1
           0           0           1
Number of primitives per shell             I   N=          21
           6           3           1           1           6           3
           1           1           6           3           1           1
           3           1           1           3           1           1
           3           1           1
Shell to atom map                          I   N=          21
           1           1           1           1           2           2
           2           2           3           3           3           3
           4           4           4           5           5           5
           6           6           6
Primitive exponents                        R   N=          48
  5.48467166E+03  8.25234946E+02  1.88046958E+02  5.29645000E+01  1.68975704E+01
  5.79963534E+00  1.55396162E+01  3.59993359E+00  1.01376175E+00  2.70005823E-01
  8.00000000E-01  3.04752488E+03  4.57369518E+02  1.03948685E+02  2.92101553E+01
  9.28666296E+00  3.16392696E+00  7.86827235E+00  1.88128854E+00  5.44249258E-01
  1.68714478E-01  8.00000000E-01  4.17351146E+03  6.27457911E+02  1.42902093E+02
  4.02343293E+01  1.28202129E+01  4.39043701E+00  1.16263619E+01  2.71627981E+00
  7.72218397E-01  2.12031498E-01  8.00000000E-01  1.87311370E+01  2.82539436E+00
  6.40121692E-01  1.61277759E-01  1.10000000E+00  1.87311370E+01  2.82539436E+00
  6.40121692E-01  1.61277759E-01  1.10000000E+00  1.87311370E+01  2.82539436E+00
  6.40121692E-01  1.61277759E-01  1.10000000E+00
Contraction coefficients                   R   N=          48
  1.83107443E-03  1.39501722E-02  6.84450781E-02  2.32714336E-01  4.70192898E-01
  3.58520853E-01 -1.10777550E-01 -1.48026263E-01  1.13076702E+00  1.00000000E+00
  1.00000000E+00  1.83473713E-03  1.40373228E-02  6.88426223E-02  2.32184443E-01
  4.67941348E-01  3.62311985E-01 -1.19332420E-01 -1.60854152E-01  1.14345644E+00
  1.00000000E+00  1.00000000E+00  1.83477216E-03  1.39946270E-02  6.85865518E-02
  2.32240873E-01  4.69069948E-01  3.60455199E-01 -1.14961182E-01 -1.69117479E-01
  1.14585195E+00  1.00000000E+00  1.00000000E+00  3.34946043E-02  2.34726953E-01
  8.13757326E-01  1.00000000E+00  1.00000000E+00  3.34946043E-02  2.34726953E-01
  8.13757326E-01  1.00000000E+00  1.00000000E+00  3.34946043E-02  2.34726953E-01
  8.13757326E-01  1.00000000E+00  1.00000000E+00
P(S=P) Contraction coefficients            R   N=          48
  0.00000000E+00  0.00000000E+00  0.00000000E+00  0.00000000E+00  0.00000000E+00
  0.00000000E+00  7.08742682E-02  3.39752839E-01  7.27158577E-01  1.00000000E+00
  0.00000000E+00  0.00000000E+00  0.00000000E+00  0.00000000E+00  0.00000000E+00
  0.00000000E+00  0.00000000E+00  6.89990666E-02  3.16423961E-01  7.44308291E-01
  1.00000000E+00  0.00000000E+00  0.00000000E+00  0.00000000E+00  0.00000000E+00
  0.00000000E+00  0.00000000E+00  0.00000000E+00  6.75797439E-02  3.23907296E-01
  7.40895140E-01  1.00000000E+00  0.00000000E+00  0.00000000E+00  0.00000000E+00
  0.00000000E+00  0.00000000E+00  0.00000000E+00  0.00000000E+00  0.00000000E+00
  0.00000000E+00  0.00000000E+00  0.00000000E+00  0.00000000E+00  0.00000000E+00
  0.00000000E+00  0.00000000E+00  0.00000000E+00
Coordinates of each shell                  R   N=          63
  2.61446067E+00 -1.17374103E+00  3.23066446E+00  2.61446067E+00 -1.17374103E+00
  3.23066446E+00  2.61446067E+00 -1.17374103E+00  3.23066446E+00  2.61446067E+00
 -1.17374103E+00  3.23066446E+00  1.66558194E+00  9.65302344E-01  3.35282014E+00
  1.66558194E+00  9.65302344E-01  3.35282014E+00  1.66558194E+00  9.65302344E-01
  3.35282014E+00  1.66558194E+00  9.65302344E-01  3.35282014E+00  1.75382837E+00
  2.67551394E+00  1.54645549E+00  1.75382837E+00  2.67551394E+00  1.54645549E+00
  1.75382837E+00  2.67551394E+00  1.54645549E+00  1.75382837E+00  2.67551394E+00
  1.54645549E+00  6.64907699E-01  1.56413199E+00  5.03468962E+00  6.64907699E-01
  1.56413199E+00  5.03468962E+00  6.64907699E-01  1.56413199E+00  5.03468962E+00
  9.99360878E-01  4.39802388E+00  1.86133489E+00  9.99360878E-01  4.39802388E+00
  1.86133489E+00  9.99360878E-01  4.39802388E+00  1.86133489E+00  2.58299484E+00
  2.25710212E+00 -1.18778736E-01  2.58299484E+00  2.25710212E+00 -1.18778736E-01
  2.58299484E+00  2.25710212E+00 -1.18778736E-01
Constraint Structure                       R   N=          18
  2.61446067E+00 -1.17374103E+00  3.23066446E+00  1.66558194E+00  9.65302344E-01
  3.35282014E+00  1.75382837E+00  2.67551394E+00  1.54645549E+00  6.64907699E-01
  1.56413199E+00  5.03468962E+00  9.99360878E-01  4.39802388E+00  1.86133489E+00
  2.58299484E+00  2.25710212E+00 -1.18778736E-01
Num ILSW                                   I              100
ILSW                                       I   N=         100
           0           1           0           0           2           0
           0           0           3           0           0          -1
           0           0           0           1           0           0
           0           0           0           0           0           0
           1           1           0           0           0           0
           0           0      100000           0          -1           0
           0           0           0           0           0           0
           0           0           0           1           0           0
           0           0           1           0           0           0
           0           0           4          41           0           0
           0           0           0           0           0           0
           0           0           0           6           0           0
           0           0           0           0           0           0
           0           0           0           0           0           0
           0           0           0           0           0           0
           0           0           0           0           0           0
           0           0           0           0
Num RLSW                                   I               41
RLSW                                       R   N=          41
  1.00000000E+00  1.00000000E+00  1.00000000E+00  1.00000000E+00  1.00000000E+00
  0.00000000E+00  0.00000000E+00  1.00000000E+00  0.00000000E+00  0.00000000E+00
  0.00000000E+00  0.00000000E+00  1.00000000E+00  0.00000000E+00  0.00000000E+00
  0.00000000E+00  0.00000000E+00  1.00000000E+00  0.00000000E+00  0.00000000E+00
  0.00000000E+00  0.00000000E+00  1.00000000E+00  0.00000000E+00  0.00000000E+00
  0.00000000E+00  0.00000000E+00  1.00000000E+00  0.00000000E+00  0.00000000E+00
  0.00000000E+00  0.00000000E+00  1.00000000E+00  0.00000000E+00  0.00000000E+00
  0.00000000E+00  0.00000000E+00  0.00000000E+00  1.00000000E+00  1.00000000E+00
  0.00000000E+00
MxBond                                     I                3
NBond                                      I   N=           6
           1           3           3           1           1           1
IBond                                      I   N=          18
           2           0           0           1           3           4
           2           5           6           2           0           0
           3           0           0           3           0           0
RBond                                      R   N=          18
  2.00000000E+00  0.00000000E+00  0.00000000E+00  2.00000000E+00  1.41000000E+00
  1.00000000E+00  1.41000000E+00  1.00000000E+00  1.00000000E+00  1.00000000E+00
  0.00000000E+00  0.00000000E+00  1.00000000E+00  0.00000000E+00  0.00000000E+00
  1.00000000E+00  0.00000000E+00  0.00000000E+00
Virial Ratio                               R      2.002873864105464E+00
SCF Energy                                 R     -1.689356569030808E+02
Total Energy                               R     -1.689356569030808E+02
RMS Density                                R      3.164028090783280E-09
External E-field                           R   N=          35
  0.00000000E+00  0.00000000E+00  0.00000000E+00  0.00000000E+00  0.00000000E+00
  0.00000000E+00  0.00000000E+00  0.00000000E+00  0.00000000E+00  0.00000000E+00
  0.00000000E+00  0.00000000E+00  0.00000000E+00  0.00000000E+00  0.00000000E+00
  0.00000000E+00  0.00000000E+00  0.00000000E+00  0.00000000E+00  0.00000000E+00
  0.00000000E+00  0.00000000E+00  0.00000000E+00  0.00000000E+00  0.00000000E+00
  0.00000000E+00  0.00000000E+00  0.00000000E+00  0.00000000E+00  0.00000000E+00
  0.00000000E+00  0.00000000E+00  0.00000000E+00  0.00000000E+00  0.00000000E+00
IOpCl                                      I                0
IROHF                                      I                0
Alpha Orbital Energies                     R   N=          60
 -2.05206339E+01 -1.56036765E+01 -1.13505301E+01 -1.36192655E+00 -1.22748403E+00
 -8.54707223E-01 -7.55425095E-01 -6.73336107E-01 -5.86532815E-01 -5.64992651E-01
 -4.21716707E-01 -4.09036738E-01  2.03069676E-01  2.11907599E-01  2.50768698E-01
  3.16308052E-01  4.29744458E-01  5.48654964E-01  7.43774725E-01  7.52520409E-01
  8.57804314E-01  9.12030382E-01  9.40333902E-01  9.60473709E-01  1.05996822E+00
  1.11014990E+00  1.11741806E+00  1.12932028E+00  1.31291207E+00  1.33929637E+00
  1.46870218E+00  1.55776671E+00  1.60109236E+00  1.63257681E+00  1.74640123E+00
  1.78063660E+00  2.06211574E+00  2.13510525E+00  2.16893620E+00  2.27328735E+00
  2.32442937E+00  2.35935584E+00  2.43463908E+00  2.46386344E+00  2.59808440E+00
  2.67726951E+00  2.80134421E+00  2.86011226E+00  2.95485352E+00  3.10524575E+00
  3.10954458E+00  3.19159652E+00  3.35385857E+00  3.39465851E+00  3.61994253E+00
  3.83947119E+00  4.07127711E+00  4.27248028E+00  4.37374005E+00  4.81354183E+00
Alpha MO coefficients                      R   N=        3600
  9.94712905E-01  2.09804992E-02 -6.14659883E-04  1.40766054E-03  4.45277035E-05
  4.20091095E-03  6.05082780E-05 -1.29444067E-04 -8.23822329E-06 -3.96236160E-03
 -3.69262442E-03 -3.88140295E-03 -1.66660668E-04 -8.53579192E-05 -1.25039848E-05
  2.13660383E-06  5.40332193E-04  2.29881646E-06 -1.74263405E-05  8.31253921E-06
 -3.11622288E-04 -1.87631008E-04  3.17760547E-04  1.20950869E-04 -1.43274329E-04
 -6.50854539E-04 -1.10341595E-05  3.04775000E-04 -4.43534500E-06 -1.63275822E-05
 -4.89286559E-06 -2.86343234E-05 -4.97792374E-06  1.22283680E-05 -5.21715920E-06
  1.26351079E-04  2.25144877E-05 -5.99367922E-05  2.66181844E-06 -2.62827584E-05
 -1.14892502E-04  1.27978830E-04  3.08059799E-05 -8.74074407E-05  1.47418803E-06
 -3.91535639E-05 -1.48550816E-04 -3.03777146E-05  7.91779022E-05 -6.09762080E-06
  3.80539846E-05 -2.77739852E-05  1.99390709E-05 -7.89419250E-06 -4.28717485E-05
 -7.18168073E-05 -3.67285555E-05  2.85399050E-05 -2.77231242E-05 -4.78478003E-05
  9.39120278E-06  3.37251792E-06  3.78284692E-06 -1.10350993E-05 -1.04321175E-06
 -1.24559030E-04 -4.97581451E-05 -8.90520574E-05  1.95077639E-04 -1.33087675E-06
 -3.51196762E-06  2.14854226E-05 -2.91250867E-05 -4.07810723E-05  3.66153232E-05
  3.59016939E-05  2.08190412E-04  6.39480265E-06  1.26278547E-04 -1.32458992E-04
  1.41877736E-03  1.09217431E-04  5.30361969E-04 -7.39142678E-04 -5.10599015E-05
 -1.23857646E-04 -1.06277524E-04  4.44076829E-06 -1.11486003E-07  6.26130424E-05
  9.94891071E-01  2.52458983E-02 -3.01433242E-05 -9.83563015E-07  1.08700019E-04
 -1.96768979E-03  1.25614369E-05  4.58424886E-04 -4.78400959E-04 -3.51242743E-03
 -3.46945197E-03 -3.46656413E-03 -2.47608960E-05 -2.94358566E-05 -3.79950803E-06
 -4.85125634E-05  5.35258571E-05  8.51010667E-06 -4.34505982E-05  2.26648132E-05
  1.62317520E-04  2.14116592E-04 -6.91869766E-05  1.31046364E-04  5.28173847E-05
  1.84124358E-04  2.10163267E-04  5.95650141E-05 -5.16012942E-05 -9.73411884E-05
 -2.71063461E-04  4.51445645E-04 -1.05829741E-04  2.61316286E-04 -7.33223881E-06
 -1.97969934E-03  4.83713143E-04 -1.28591812E-03  1.26952261E-04  2.05363395E-04
 -1.42072362E-05  1.02278450E-04  1.22786310E-04  7.25294041E-05  4.33720520E-05
  9.95708854E-01  2.61994799E-02  1.17978450E-04  2.70460146E-04 -5.26387280E-04
 -5.73847032E-03  1.33511265E-03 -1.81109152E-03 -1.30576116E-03 -2.31278785E-03
 -1.07949688E-03 -1.63446017E-03 -5.88688337E-04 -3.63675959E-04 -3.86118148E-04
 -3.89398153E-04  1.65408753E-04  3.22580569E-05  1.90655109E-05 -9.48396424E-05
  5.41090450E-04 -4.44847017E-04  8.75746718E-04  2.22551247E-04 -9.28795759E-05
 -5.12358505E-04 -6.24931885E-04  1.83332752E-04  2.58551123E-04  1.68275317E-04
 -1.55407679E-04  2.66516401E-03 -7.25446367E-05  7.12480456E-05  9.69924115E-05
  4.08778587E-05 -8.13148208E-05  4.91358446E-05 -2.79957518E-04  1.38078636E-04
  3.73561885E-04  3.26697612E-04 -1.01778185E-04 -6.72621977E-05  3.21158013E-04
 -1.72661869E-01  3.79113910E-01 -4.72687989E-02  1.11997152E-01  1.25027326E-03
  3.55913561E-01 -1.94485970E-02  4.95311833E-02 -2.99776039E-03  4.60429805E-04
  1.45933049E-02 -2.83169782E-03 -8.13106696E-03  3.52569778E-04 -1.66418507E-04
 -1.27747031E-01  2.49782130E-01  6.23263287E-02 -1.00173568E-01 -4.62997971E-02
  6.08168475E-02 -1.37934337E-02  1.39311297E-02  1.78461719E-02 -1.22356794E-02
  2.09704930E-02 -1.31394063E-02 -1.73368437E-02 -1.17146259E-03 -4.16922396E-03
 -7.52567768E-02  1.55731457E-01  2.64741455E-03 -4.28942312E-02  3.47850792E-02
  1.43656859E-01  3.71736482E-03 -2.10142255E-02  1.15878990E-02 -3.47495159E-03
  5.58292550E-03  2.52100873E-03 -1.19722195E-03 -1.16941281E-04 -7.19039136E-03
  3.90517936E-02 -7.70949753E-03  3.56208520E-03 -2.97134955E-03 -5.19210916E-03
  3.45929803E-02  3.75079529E-04  1.75489232E-03 -4.41159547E-03 -3.97554802E-04
  3.83555678E-02  1.68470903E-03 -2.49945122E-03  5.27651958E-04  5.77711652E-03
  9.99770530E-02 -2.21590946E-01  2.11773321E-02 -3.42941201E-02 -1.56692456E-02
 -2.13205081E-01  8.19190154E-03 -1.08350789E-02 -8.42701562E-03 -7.76840495E-04
 -3.78744807E-03 -3.66117386E-04  3.21312536E-03  1.55803322E-03 -2.05782273E-03
 -3.22057315E-02  6.82242461E-02 -3.98016968E-02  1.94683712E-01 -9.31271602E-02
 -1.12615873E-03 -6.24000789E-03  1.67614074E-04  1.40745686E-02 -6.65642923E-03
 -6.19522892E-03  1.55485653E-02  1.07125996E-02 -9.50220945E-04 -2.07069887E-02
 -1.80873561E-01  3.71517716E-01 -8.02866399E-03 -1.90637437E-02  3.75692508E-02
  3.87934039E-01 -4.49902364E-03 -1.03079919E-02  2.05317163E-02 -7.41738017E-03
  9.12972248E-04  4.34789380E-03 -2.36245012E-03 -4.64759473E-03 -5.16826535E-03
  1.85324841E-02 -2.89364392E-04  5.55952303E-04  1.16557181E-03 -2.33140581E-03
  1.16897925E-01  1.07015522E-02  6.43125671E-03 -1.54437068E-02 -2.00953656E-03
  1.06115953E-01  7.68374593E-03 -6.56255620E-03  3.20928259E-03  1.32587984E-02
  6.11110804E-02 -1.42212141E-01 -4.22453974E-02  7.00964997E-02  2.97161093E-02
 -1.62515886E-01 -2.33494362E-02  4.29519513E-02  1.23119772E-02 -5.37164099E-04
  3.92300592E-03 -3.81545565E-03 -3.94997899E-03 -1.13284056E-04  2.44454277E-03
 -1.32628827E-01  2.86922298E-01 -8.75846827E-02  1.50729588E-01  5.63371239E-02
  2.01029060E-01 -3.97701918E-02  5.84566838E-02  3.53449670E-02 -8.91001647E-03
 -3.28770172E-03  5.43368498E-03 -2.39305814E-03 -7.37879234E-03 -4.53631275E-03
  5.25587458E-02 -1.09556459E-01 -5.99099461E-02 -1.45433906E-01  2.75906259E-01
 -1.65074478E-01 -2.42353703E-02 -6.99752298E-02  1.22098838E-01 -1.15955701E-03
 -3.27045454E-04  4.21827580E-03  6.87556904E-03  4.38729934E-03 -1.38269521E-02
  1.75808986E-01  7.16826167E-02  6.23594802E-03 -2.41266848E-03 -1.16088937E-02
 -8.07450204E-02 -2.85674289E-02 -4.35424776E-03  4.67348190E-03  6.47343851E-03
 -1.68729000E-01 -5.68816135E-02  7.40696296E-03 -7.31195030E-03 -1.17758073E-02
 -2.91160992E-02  6.41420137E-02 -1.16490313E-02 -8.78392200E-02  1.14127047E-01
  9.90791069E-02 -7.58527890E-03 -4.57591105E-02  6.34968175E-02  1.46255139E-03
 -8.35354451E-03  1.57967002E-03  1.25979286E-03 -3.68426406E-03  7.57940356E-03
  2.04499103E-02 -5.32183747E-02 -9.35277079E-02 -1.46839819E-02  2.35290644E-01
  8.12883411E-04 -1.50722058E-02 -1.02633145E-03  3.76270233E-02  4.26709503E-03
  9.03672754E-03 -9.68101189E-03 -6.21043971E-03  2.51437357E-03  8.21694659E-03
 -4.30442105E-03  5.93499006E-03 -1.65415423E-01  3.85466961E-01  5.31089547E-02
  8.19446941E-03 -9.61813561E-02  2.10278111E-01  4.35328866E-02  1.40174929E-03
  6.73799166E-03 -6.83620961E-03 -7.31106122E-03 -1.13750050E-03  1.00184903E-02
  9.90593477E-02  7.55517653E-02  3.03210343E-03 -1.94470765E-03 -4.70320132E-03
  2.47352321E-01  1.08776073E-01  6.93980330E-03 -1.57610517E-02 -3.17807304E-03
 -1.06342015E-01 -3.42245200E-02  2.37669577E-03  4.63131867E-03 -1.01723895E-02
 -5.30912399E-02  1.21994059E-01  1.36683186E-01 -1.51335686E-01 -1.54703102E-01
  1.87422010E-01  7.79284617E-02 -8.42118779E-02 -8.93495550E-02 -3.20768348E-03
 -7.18431688E-03  2.96270438E-03  1.07275354E-02  5.07756653E-03 -1.21824133E-02
  4.44581379E-02 -9.73030699E-02  5.97147015E-02  1.65692044E-01 -2.73214502E-01
 -1.31797828E-01  4.85456879E-02 -1.87549535E-02 -8.64727374E-02 -2.89727407E-03
  9.20688523E-03 -4.77044175E-03  3.55068763E-03  9.08038331E-03 -1.53242314E-02
 -8.48846628E-03  1.87877981E-02 -1.18164577E-01 -1.30757063E-02  3.25321722E-01
  3.65530664E-02 -8.09783248E-02  5.00458580E-03  2.08252200E-01 -3.09380581E-03
  6.97247351E-03 -8.19453155E-03  2.97936020E-04  7.62867255E-03 -9.09180630E-03
 -1.69530069E-01 -1.01086821E-01 -4.93244519E-03  4.26730001E-03  7.26641889E-03
  6.05898894E-02  2.63885497E-02  5.87498254E-04 -6.83581716E-03  5.31591239E-03
 -1.93602648E-01 -8.52536363E-02  6.16182520E-03 -5.91883432E-03 -9.05570208E-03
  6.39614396E-02 -1.40361800E-01 -1.20244502E-01  4.42189524E-01 -4.47702780E-02
 -2.93812472E-01 -6.88729071E-02  2.65449980E-01 -2.78143382E-02 -2.58240818E-03
  3.11339991E-02 -6.78767573E-03 -1.24612823E-02  2.41004453E-03 -2.86449096E-03
 -2.86744696E-02  7.99206967E-02  2.05597354E-01 -2.66091521E-01 -1.03540684E-01
  3.27087612E-03  6.25660042E-02 -4.94719363E-02 -4.20895932E-02 -1.23026763E-03
  1.73567345E-02 -2.33932473E-02 -1.17223631E-02  5.42418715E-03  3.31050669E-03
  4.20344978E-03 -9.44135792E-03 -3.11268030E-02  1.59260285E-01  8.46469684E-02
 -4.83638098E-03 -1.39122374E-02  9.79141625E-02  5.55612657E-02 -5.92374166E-04
  1.29732120E-02 -1.06699610E-02 -7.53038820E-03  7.30255578E-03  1.61993790E-05
 -1.30506159E-01 -1.16543310E-01 -1.52504721E-03 -1.76835529E-03  6.89934160E-03
  1.15601619E-01  7.52430328E-02  3.58238791E-03 -4.68753617E-03 -2.34897114E-04
 -8.99945858E-02 -6.43715313E-02  3.43919162E-03  1.04340732E-03 -5.01225110E-03
 -7.02167843E-03  1.52616012E-02  2.81661092E-01  5.39536843E-02  1.26802365E-01
  3.46951998E-02  1.88914798E-01  4.00957902E-02  8.49998967E-02 -1.60267803E-02
  1.16072070E-02  1.61251109E-03  1.91794156E-02 -3.72352217E-03  1.06091006E-02
  2.63932734E-03 -8.03308362E-03  2.42877421E-01  1.46992332E-01  1.38177528E-01
  3.00413276E-03  1.30775444E-01  6.68627402E-02  7.18786384E-02  1.30505647E-02
 -5.31872285E-03 -6.82616754E-03  2.53676453E-03 -1.23604808E-02 -7.21605333E-03
 -6.07524372E-05  1.51016513E-04  3.41878050E-01  1.00270539E-01  1.17385117E-01
 -9.45174740E-04  2.51078583E-01  7.58446992E-02  8.71604652E-02 -1.55708375E-03
 -8.83440765E-03  1.02451688E-02 -8.69763969E-03  9.70068374E-03  5.30441339E-04
  2.18931990E-02  1.84986993E-02  4.98971884E-03  2.14884490E-03  1.07522853E-03
 -1.86523108E-02 -1.27907145E-02  9.53907861E-03  4.39432463E-03  3.99106534E-03
  1.72977061E-02  1.19590276E-02  9.21265522E-03  3.59123757E-03  4.75456294E-03
 -3.37338532E-04  1.01333635E-02 -2.05285658E-01 -8.96085201E-02  5.46092633E-01
 -3.27819179E-02 -1.53221618E-01 -7.59939422E-02  4.16708830E-01  8.84585158E-03
 -2.92866947E-03  3.04523446E-03 -6.41338752E-03 -8.91287871E-03  2.11925947E-02
  9.34311162E-03 -6.30146070E-03  5.04449867E-02 -1.22079341E-02 -9.99977559E-02
 -1.12714617E-01  7.81451646E-03 -8.97436981E-02  6.77354511E-02 -1.34958555E-02
  1.93483976E-02 -7.85826712E-03  1.18504102E-02  2.39073985E-02 -4.78065077E-02
 -3.33012227E-02  6.33107369E-02 -3.82657327E-04 -1.12402045E-01  1.07533745E-01
  2.76370978E-01 -7.57861835E-03 -9.35987228E-02  1.05731024E-01 -3.78589248E-03
 -2.18804886E-03 -6.20315251E-03  1.73010723E-03  3.77185014E-03 -3.59756687E-03
 -1.56568197E-01 -2.15343261E-01 -1.63691461E-03  7.01741034E-04  2.96187102E-03
 -3.73656219E-02 -5.02814329E-02 -1.16037576E-03  7.08876407E-04  2.49194674E-03
 -2.67676895E-02 -6.57063053E-02  2.07904995E-05 -1.33851808E-04  2.46609581E-05
  2.86651203E-04 -6.43050095E-04 -3.71873556E-01 -1.62071987E-01 -1.63581838E-01
 -1.98228650E-03 -2.97151921E-01 -1.29449425E-01 -1.31501094E-01  1.75659605E-02
 -1.66048674E-02 -9.70431799E-04 -1.82090935E-02  2.94093945E-03 -1.05396055E-02
 -3.16190909E-04  4.29800224E-04 -7.33777873E-02 -2.78062647E-02 -2.97748730E-02
  2.16306231E-03 -7.62837387E-02 -3.34775982E-02 -3.15252683E-02 -1.78591614E-02
  2.67456529E-02 -8.82199682E-03  3.48610644E-02 -1.81930362E-02  1.18697951E-02
  5.27912050E-04 -9.60096137E-04  3.73767486E-01  1.38429895E-01  1.50380159E-01
 -2.80292317E-03  3.50761158E-01  1.30463992E-01  1.43536900E-01 -2.42875833E-03
 -7.08892410E-04  3.46190433E-03 -1.82198559E-03  4.07647279E-03  1.30065280E-03
  4.10530677E-03  4.23593598E-03 -7.29633941E-04 -3.25987543E-04 -4.28812214E-04
  7.41032550E-04  1.23377090E-03  1.18213430E-02  4.27686108E-03  4.74763693E-03
  5.72304823E-04  2.31227838E-03  1.11058985E-02  4.09140201E-03  4.55096950E-03
 -7.29231462E-04  6.81966160E-04 -2.80691801E-01 -1.13115390E-01 -1.25710421E-01
  1.05930463E-02 -4.13222376E-01 -1.65741333E-01 -1.86037522E-01 -2.53238972E-03
  4.42285908E-04  1.37062152E-03  8.57841070E-05  1.73289660E-03  1.40665606E-03
 -1.59052184E-03  1.60503068E-03  3.90326732E-01  1.67415262E-01  1.78890802E-01
  2.32665788E-02  6.62719558E-01  2.96337576E-01  3.10204087E-01 -2.08420452E-02
  1.31359142E-02  7.12239643E-03  1.11976967E-02  6.27713694E-03  1.22617170E-02
  1.79805048E-03 -1.54218847E-03 -2.02803828E-01 -6.89070270E-02 -7.44196138E-02
 -3.10530742E-02 -3.87427424E-01 -1.24933048E-01 -1.31430626E-01 -3.89365031E-03
 -1.20955260E-02  1.78540667E-02 -1.68356580E-02  1.95116589E-02  1.50364673E-03
 -4.04941339E-03 -4.23823857E-02  1.88709380E-02  8.13721848E-03  8.40894315E-03
 -7.00614186E-03 -3.29535688E-02 -9.66707842E-03 -3.78990807E-03 -3.44196826E-03
  7.45738681E-03  6.99998924E-02 -9.93022060E-03 -3.33240137E-03 -4.11798679E-03
 -4.08196076E-03  2.52503050E-02  2.62052283E-02  2.17543884E-02 -8.58737153E-02
 -3.61737266E-02  4.09709662E-02  2.03201941E-02 -1.14293631E-01  5.02350709E-03
  7.30682202E-03  2.49871576E-03 -9.77817330E-04  1.00377658E-03  1.51221256E-04
 -6.44357625E-03  7.76404769E-03 -4.14391053E-02 -1.47954252E-02  1.12364529E-01
  2.85260667E-01 -7.18381674E-02 -2.17315057E-02  1.73390235E-01 -1.00873345E-03
  2.82370475E-03  2.55829781E-03 -1.54732044E-03 -2.21421432E-03 -2.47023383E-03
 -1.08372610E-01  1.21388568E-01 -3.02363514E-02  1.70651704E-01 -7.99346909E-02
  1.64376425E+00 -8.45505929E-02  5.11077407E-01 -2.42479127E-01 -3.03490469E-02
 -2.96417319E-02 -2.56292354E-02 -1.44515006E-03 -3.36905648E-03  1.12577690E-03
  3.34462834E-02 -3.12068282E-01  9.77879563E-04 -4.74352376E-03  1.82917944E-03
 -5.58815020E-02 -1.52033699E+00  5.72650305E-04  1.52794372E-03 -2.90958169E-03
 -4.71702272E-02 -8.63323796E-01 -8.20048480E-04  1.99835821E-03  1.46676763E-04
 -1.17636655E-04  2.06036694E-03  1.19596969E-02  2.14273675E-02 -8.34410485E-03
 -1.27564782E-02  5.30535373E-02  1.19719350E-02 -6.78088468E-02  2.08193821E-03
 -3.73848710E-03  5.23434893E-04  2.36515633E-03  2.64637986E-04  2.17187513E-03
 -5.62449701E-02  6.38821859E-02 -1.12473123E-01  8.47014258E-02  1.23095562E-01
  9.99395153E-01 -2.73163347E-01  1.87557429E-01  3.15970598E-01 -1.14567216E-03
  1.25324426E-02 -1.58654591E-02 -9.31919107E-03  4.40528427E-03  2.26823598E-03
  4.46642216E-02 -5.93988251E-02 -1.04688837E-01  1.44784889E-01  1.55962173E-01
 -6.76023926E-01 -3.55493641E-01  5.11092678E-01  4.87491196E-01  9.99913423E-03
  1.12630446E-03  1.64983779E-02  5.82331737E-03 -3.77047686E-03 -7.31707374E-04
 -3.82564899E-02 -1.22898743E+00 -2.54472874E-03  3.33933120E-03 -2.49427996E-04
 -2.74237158E-02 -7.33834603E-01 -1.19643606E-03  4.62470386E-03  6.94284534E-04
  6.09834137E-02  1.49385442E+00 -1.81270822E-03  3.98996107E-03  2.02773839E-03
 -4.83610695E-03  4.35591620E-02 -5.23335681E-02  8.04295218E-02  4.80317226E-02
 -1.49927154E-01 -8.33393573E-02  4.71801469E-02  1.56853003E-01  7.28640545E-03
  7.58896259E-03  1.23562320E-02 -1.57353947E-03 -4.37834248E-03  1.47807646E-03
  9.14714921E-02 -1.04116281E-01  1.04780388E-01 -7.56460794E-02 -1.64553904E-01
 -1.72326771E+00  5.66233402E-01 -5.87683871E-01 -7.59008989E-01 -1.59722836E-03
  1.61774273E-02 -6.67386506E-03 -5.76775618E-03  4.64067236E-03 -6.81852422E-03
 -2.25105247E-02  3.38147770E-02 -9.59014368E-02  8.69446191E-02  1.64627841E-01
  3.68775358E-01 -5.19023119E-01  4.84336832E-01  8.27247715E-01 -2.62892279E-03
  6.96184974E-03 -1.19134389E-02 -8.08785252E-03  5.87651194E-04  6.05914799E-03
 -7.87942690E-03  1.99543259E+00  1.55603348E-03  1.73532517E-03 -5.75759567E-03
 -1.47878148E-02 -1.12376469E+00 -4.88178721E-03  6.15351422E-03  5.88217340E-03
  2.25314394E-02  1.05662069E+00 -2.45834729E-03 -2.91077986E-03  9.62554172E-03
 -1.15329264E-01  2.99334897E-02 -6.75573566E-02  1.27182780E-01  3.60333962E-02