mp2/6-31g(d,p)                                                          
SP        RMP2-FC                                                     6-31G(d,p)          
Number of atoms                            I                8
Charge                                     I                0
Multiplicity                               I                1
Number of electrons                        I               32
Number of alpha electrons                  I               16
Number of beta electrons                   I               16
Number of basis functions                  I               80
Number of independant functions            I               80
Number of point charges in /Mol/           I                0
Number of translation vectors              I                0
Info1-9                                    I   N=           9
          16          16           0           0           0         110
           1           2           1
Num ILSW                                   I              100
ILSW                                       I   N=         100
           0           1           0           0           2           0
           0           0           0           0           0     1000000
           0           0          -1           1           0           0
           0     1000000           0           0           0           0
           1           0           0           0     1000000           0
           0           0      100000           0          -1           0
           0           0           0           0           0           0
           0           0           0           1           0           0
           0           0           1     1000000     1000000           0
           0           0           0           0           0           0
           0           0           0           0           0           0
           0           0           0           0           0           0
           0           0           0           0           0           0
           0           0           0           0           0           0
           0           0           0           0           0           0
           0           0           0           0           0           0
           0           0           0           0
Number of contracted shells                I               28
Highest angular momentum                   I                2
Largest degree of contraction              I                6
Number of primitive shells                 I               64
Pure/Cartesian d shells                    I                1
Pure/Cartesian f shells                    I                1
Virial Ratio                               R      2.009548599512457E+00
SCF Energy                                 R     -2.224409384861170E+02
MP2 Energy                                 R     -2.235567790540074E+02
Total Energy                               R     -2.235567790540074E+02
Post-SCF wavefunction norm                 R      1.628090138220611E+00
RMS Density                                R      4.015714872225870E-09
Atomic numbers                             I   N=           8
           6           8           7           1           1           7
           1           1
Nuclear charges                            R   N=           8
  6.00000000E+00  8.00000000E+00  7.00000000E+00  1.00000000E+00  1.00000000E+00
  7.00000000E+00  1.00000000E+00  1.00000000E+00
Current cartesian coordinates              R   N=          24
  5.00771215E-18  4.03966221E-01 -7.22786896E-18  6.07050549E-17  4.89700504E+00
 -8.76184911E-17 -4.08427731E+00 -2.10912074E+00 -6.65095256E-16 -7.21424198E+00
 -3.24141870E-01  1.91520608E-06 -4.03008557E+00 -5.71193237E+00 -5.91307367E-16
  4.08427722E+00 -2.10912062E+00  7.40569114E-16  7.21424434E+00 -3.24141655E-01
  1.24724402E-15  4.03008557E+00 -5.71193225E+00  1.97000608E-06
Int Atom Types                             I   N=           8
           0           0           0           0           0           0
           0           0
Force Field                                I                0
MM charges                                 R   N=           8
  0.00000000E+00  0.00000000E+00  0.00000000E+00  0.00000000E+00  0.00000000E+00
  0.00000000E+00  0.00000000E+00  0.00000000E+00
Integer atomic weights                     I   N=           8
          12          16          14           1           1          14
           1           1
Real atomic weights                        R   N=           8
  1.20000000E+01  1.59949146E+01  1.40030740E+01  1.00782504E+00  1.00782504E+00
  1.40030740E+01  1.00782504E+00  1.00782504E+00
Atom residue info                          I   N=           8
           0           0           0           0           0           0
           0           0
Atom fragment info                         I   N=           8
           0           0           0           0           0           0
           0           0
Atom residue num                           I   N=           8
           0           0           0           0           0           0
           0           0
Nuclear spins                              I   N=           8
           0           0           2           1           1           2
           1           1
Nuclear ZEff                               R   N=           8
 -3.60000000E+00 -5.60000000E+00 -4.55000000E+00 -1.00000000E+00 -1.00000000E+00
 -4.55000000E+00 -1.00000000E+00 -1.00000000E+00
Nuclear QMom                               R   N=           8
  0.00000000E+00  0.00000000E+00  2.04400000E+00  0.00000000E+00  0.00000000E+00
  2.04400000E+00  0.00000000E+00  0.00000000E+00
Nuclear GFac                               R   N=           8
  0.00000000E+00  0.00000000E+00  4.03761000E-01  2.79284600E+00  2.79284600E+00
  4.03761000E-01  2.79284600E+00  2.79284600E+00
MicOpt                                     I   N=           8
          -1          -1          -1          -1          -1          -1
          -1          -1
Constraint Structure                       R   N=          24
  5.00771215E-18  4.03966221E-01 -7.22786896E-18  6.07050549E-17  4.89700504E+00
 -8.76184911E-17 -4.08427731E+00 -2.10912074E+00 -6.65095256E-16 -7.21424198E+00
 -3.24141870E-01  1.91520608E-06 -4.03008557E+00 -5.71193237E+00 -5.91307367E-16
  4.08427722E+00 -2.10912062E+00  7.40569114E-16  7.21424434E+00 -3.24141655E-01
  1.24724402E-15  4.03008557E+00 -5.71193225E+00  1.97000608E-06
ONIOM Charges                              I   N=          16
           0           0           0           0           0           0
           0           0           0           0           0           0
           0           0           0           0
ONIOM Multiplicities                       I   N=          16
           1           0           0           0           0           0
           0           0           0           0           0           0
           0           0           0           0
Atom Layers                                I   N=           8
           1           1           1           1           1           1
           1           1
Atom Modifiers                             I   N=           8
           0           0           0           0           0           0
           0           0
Int Atom Modified Types                    I   N=           8
           0           0           0           0           0           0
           0           0
Link Atoms                                 I   N=           8
           0           0           0           0           0           0
           0           0
Atom Modified MM Charges                   R   N=           8
  0.00000000E+00  0.00000000E+00  0.00000000E+00  0.00000000E+00  0.00000000E+00
  0.00000000E+00  0.00000000E+00  0.00000000E+00
Link Distances                             R   N=          32
  0.00000000E+00  0.00000000E+00  0.00000000E+00  0.00000000E+00  0.00000000E+00
  0.00000000E+00  0.00000000E+00  0.00000000E+00  0.00000000E+00  0.00000000E+00
  0.00000000E+00  0.00000000E+00  0.00000000E+00  0.00000000E+00  0.00000000E+00
  0.00000000E+00  0.00000000E+00  0.00000000E+00  0.00000000E+00  0.00000000E+00
  0.00000000E+00  0.00000000E+00  0.00000000E+00  0.00000000E+00  0.00000000E+00
  0.00000000E+00  0.00000000E+00  0.00000000E+00  0.00000000E+00  0.00000000E+00
  0.00000000E+00  0.00000000E+00
MxBond                                     I                1
NBond                                      I   N=           8
           0           0           0           0           0           0
           0           0
IBond                                      I   N=           8
           0           0           0           0           0           0
           0           0
RBond                                      R   N=           8
  0.00000000E+00  0.00000000E+00  0.00000000E+00  0.00000000E+00  0.00000000E+00
  0.00000000E+00  0.00000000E+00  0.00000000E+00
Shell types                                I   N=          28
           0          -1          -1           2           0          -1
          -1           2           0          -1          -1           2
           0           0           1           0           0           1
           0          -1          -1           2           0           0
           1           0           0           1
Number of primitives per shell             I   N=          28
           6           3           1           1           6           3
           1           1           6           3           1           1
           3           1           1           3           1           1
           6           3           1           1           3           1
           1           3           1           1
Shell to atom map                          I   N=          28
           1           1           1           1           2           2
           2           2           3           3           3           3
           4           4           4           5           5           5
           6           6           6           6           7           7
           7           8           8           8
Primitive exponents                        R   N=          64
  3.04752488E+03  4.57369518E+02  1.03948685E+02  2.92101553E+01  9.28666296E+00
  3.16392696E+00  7.86827235E+00  1.88128854E+00  5.44249258E-01  1.68714478E-01
  8.00000000E-01  5.48467166E+03  8.25234946E+02  1.88046958E+02  5.29645000E+01
  1.68975704E+01  5.79963534E+00  1.55396162E+01  3.59993359E+00  1.01376175E+00
  2.70005823E-01  8.00000000E-01  4.17351146E+03  6.27457911E+02  1.42902093E+02
  4.02343293E+01  1.28202129E+01  4.39043701E+00  1.16263619E+01  2.71627981E+00
  7.72218397E-01  2.12031498E-01  8.00000000E-01  1.87311370E+01  2.82539436E+00
  6.40121692E-01  1.61277759E-01  1.10000000E+00  1.87311370E+01  2.82539436E+00
  6.40121692E-01  1.61277759E-01  1.10000000E+00  4.17351146E+03  6.27457911E+02
  1.42902093E+02  4.02343293E+01  1.28202129E+01  4.39043701E+00  1.16263619E+01
  2.71627981E+00  7.72218397E-01  2.12031498E-01  8.00000000E-01  1.87311370E+01
  2.82539436E+00  6.40121692E-01  1.61277759E-01  1.10000000E+00  1.87311370E+01
  2.82539436E+00  6.40121692E-01  1.61277759E-01  1.10000000E+00
Contraction coefficients                   R   N=          64
  1.83473713E-03  1.40373228E-02  6.88426223E-02  2.32184443E-01  4.67941348E-01
  3.62311985E-01 -1.19332420E-01 -1.60854152E-01  1.14345644E+00  1.00000000E+00
  1.00000000E+00  1.83107443E-03  1.39501722E-02  6.84450781E-02  2.32714336E-01
  4.70192898E-01  3.58520853E-01 -1.10777550E-01 -1.48026263E-01  1.13076702E+00
  1.00000000E+00  1.00000000E+00  1.83477216E-03  1.39946270E-02  6.85865518E-02
  2.32240873E-01  4.69069948E-01  3.60455199E-01 -1.14961182E-01 -1.69117479E-01
  1.14585195E+00  1.00000000E+00  1.00000000E+00  3.34946043E-02  2.34726953E-01
  8.13757326E-01  1.00000000E+00  1.00000000E+00  3.34946043E-02  2.34726953E-01
  8.13757326E-01  1.00000000E+00  1.00000000E+00  1.83477216E-03  1.39946270E-02
  6.85865518E-02  2.32240873E-01  4.69069948E-01  3.60455199E-01 -1.14961182E-01
 -1.69117479E-01  1.14585195E+00  1.00000000E+00  1.00000000E+00  3.34946043E-02
  2.34726953E-01  8.13757326E-01  1.00000000E+00  1.00000000E+00  3.34946043E-02
  2.34726953E-01  8.13757326E-01  1.00000000E+00  1.00000000E+00
P(S=P) Contraction coefficients            R   N=          64
  0.00000000E+00  0.00000000E+00  0.00000000E+00  0.00000000E+00  0.00000000E+00
  0.00000000E+00  6.89990666E-02  3.16423961E-01  7.44308291E-01  1.00000000E+00
  0.00000000E+00  0.00000000E+00  0.00000000E+00  0.00000000E+00  0.00000000E+00
  0.00000000E+00  0.00000000E+00  7.08742682E-02  3.39752839E-01  7.27158577E-01
  1.00000000E+00  0.00000000E+00  0.00000000E+00  0.00000000E+00  0.00000000E+00
  0.00000000E+00  0.00000000E+00  0.00000000E+00  6.75797439E-02  3.23907296E-01
  7.40895140E-01  1.00000000E+00  0.00000000E+00  0.00000000E+00  0.00000000E+00
  0.00000000E+00  0.00000000E+00  0.00000000E+00  0.00000000E+00  0.00000000E+00
  0.00000000E+00  0.00000000E+00  0.00000000E+00  0.00000000E+00  0.00000000E+00
  0.00000000E+00  0.00000000E+00  0.00000000E+00  0.00000000E+00  6.75797439E-02
  3.23907296E-01  7.40895140E-01  1.00000000E+00  0.00000000E+00  0.00000000E+00
  0.00000000E+00  0.00000000E+00  0.00000000E+00  0.00000000E+00  0.00000000E+00
  0.00000000E+00  0.00000000E+00  0.00000000E+00  0.00000000E+00
Coordinates of each shell                  R   N=          84
  5.00771215E-18  4.03966221E-01 -7.22786896E-18  5.00771215E-18  4.03966221E-01
 -7.22786896E-18  5.00771215E-18  4.03966221E-01 -7.22786896E-18  5.00771215E-18
  4.03966221E-01 -7.22786896E-18  6.07050549E-17  4.89700504E+00 -8.76184911E-17
  6.07050549E-17  4.89700504E+00 -8.76184911E-17  6.07050549E-17  4.89700504E+00
 -8.76184911E-17  6.07050549E-17  4.89700504E+00 -8.76184911E-17 -4.08427731E+00
 -2.10912074E+00 -6.65095256E-16 -4.08427731E+00 -2.10912074E+00 -6.65095256E-16
 -4.08427731E+00 -2.10912074E+00 -6.65095256E-16 -4.08427731E+00 -2.10912074E+00
 -6.65095256E-16 -7.21424198E+00 -3.24141870E-01  1.91520608E-06 -7.21424198E+00
 -3.24141870E-01  1.91520608E-06 -7.21424198E+00 -3.24141870E-01  1.91520608E-06
 -4.03008557E+00 -5.71193237E+00 -5.91307367E-16 -4.03008557E+00 -5.71193237E+00
 -5.91307367E-16 -4.03008557E+00 -5.71193237E+00 -5.91307367E-16  4.08427722E+00
 -2.10912062E+00  7.40569114E-16  4.08427722E+00 -2.10912062E+00  7.40569114E-16
  4.08427722E+00 -2.10912062E+00  7.40569114E-16  4.08427722E+00 -2.10912062E+00
  7.40569114E-16  7.21424434E+00 -3.24141655E-01  1.24724402E-15  7.21424434E+00
 -3.24141655E-01  1.24724402E-15  7.21424434E+00 -3.24141655E-01  1.24724402E-15
  4.03008557E+00 -5.71193225E+00  1.97000608E-06  4.03008557E+00 -5.71193225E+00
  1.97000608E-06  4.03008557E+00 -5.71193225E+00  1.97000608E-06
Alpha Orbital Energies                     R   N=          80
 -2.06016913E+01 -1.57679704E+01 -1.57679636E+01 -1.13859131E+01 -1.15353947E+00
 -9.98471267E-01 -9.94939460E-01 -7.22246078E-01 -4.68964961E-01 -4.68781404E-01
 -4.42986965E-01 -4.40067000E-01 -4.20060642E-01 -4.19532400E-01 -3.18409551E-01
 -2.66273764E-01 -1.40025783E-01 -4.06754346E-02 -1.79919347E-02  3.97854486E-02
  4.01756586E-02  6.41279502E-02  1.13951475E-01  1.14203451E-01  7.68960478E-01
  7.74635738E-01  8.13732648E-01  8.25713606E-01  9.11028809E-01  9.41074525E-01
  9.49356202E-01  9.51884828E-01  9.63673880E-01  9.69107368E-01  1.00022205E+00
  1.00108411E+00  1.03325051E+00  1.03754016E+00  1.10906798E+00  1.13066317E+00
  1.21000853E+00  1.21307900E+00  1.26591095E+00  1.39804282E+00  1.89687185E+00
  1.90421598E+00  1.91383038E+00  1.91625155E+00  1.94766107E+00  1.95062834E+00
  1.95186784E+00  1.96975704E+00  1.97721416E+00  1.97795894E+00  1.99105376E+00
  1.99585558E+00  2.00325138E+00  2.12543158E+00  2.13581268E+00  2.14856908E+00
  2.15534852E+00  2.15537865E+00  2.17360217E+00  2.24699834E+00  2.24799995E+00
  2.24801236E+00  2.24802966E+00  2.26650828E+00  2.26688785E+00  2.27543416E+00
  2.27867546E+00  2.31169832E+00  2.55522700E+00  2.55718066E+00  2.60107245E+00
  2.60375942E+00  3.74381023E+00  3.74539564E+00  3.74761342E+00  4.26190193E+00
Alpha MO coefficients                      R   N=        6400
  1.57120226E-06  4.93254804E-05 -3.52142418E-12  1.24221664E-05  4.98000584E-12
 -6.29442990E-05  6.19732951E-11 -4.45814949E-05  5.41610678E-12 -3.99908346E-06
 -3.02903588E-05 -3.78753198E-06  1.06911030E-11 -6.50207694E-14  2.39797435E-12
  9.94912602E-01  2.02926475E-02  4.42506598E-10 -2.29498663E-04  1.39337858E-11
  3.53599634E-03 -1.63936556E-10  4.50552511E-05 -6.70116968E-12 -3.50739735E-03
 -4.36666789E-03 -3.50718104E-03  8.33796168E-10 -1.06642306E-14  1.11727197E-10
 -3.28785271E-07  2.49034502E-07  3.70632828E-07 -1.78622153E-06  7.70077785E-13
  1.73502072E-06 -2.25909047E-06  4.56802742E-06  7.29495149E-13 -1.45429982E-06
  3.92984668E-08 -7.93687487E-07  4.65746508E-07 -9.45550688E-14  1.21327302E-13
  1.62307565E-07 -2.45700072E-06 -6.90821617E-07  2.33926831E-07  4.28892368E-13
  1.99045061E-07  6.96239635E-07  3.43850560E-08  5.39920951E-07 -1.34261808E-14
 -3.28780920E-07  2.49045729E-07 -3.70635688E-07 -1.78621328E-06 -1.25935666E-13
  1.73496026E-06  2.25911891E-06  4.56799822E-06 -1.17513337E-12 -1.45429162E-06
  3.93111846E-08 -7.93670631E-07 -4.65740962E-07  1.74971029E-13 -2.22783173E-14
  1.62306167E-07 -2.45699845E-06  6.90818999E-07  2.33926491E-07  4.03902417E-14
  1.99044426E-07  6.96236007E-07 -3.43860516E-08  5.39919882E-07 -3.63922132E-13
 -1.71809403E-06  3.14759034E-06 -3.28663545E-06  1.51408085E-05 -9.02033448E-12
  2.40035765E-05  6.20402548E-06 -2.55008577E-05  3.99770252E-11 -2.05929482E-05
 -2.23697467E-05 -1.68766907E-05 -4.34948848E-08  2.78360117E-12 -4.47485674E-12
 -5.47430799E-07 -1.90273308E-06  2.77118032E-07  1.08911047E-06  1.26583259E-12
  8.86772517E-06 -8.91314826E-07 -4.38988049E-06 -4.66284223E-12 -2.14735452E-06
 -7.89809240E-07 -2.12747132E-06  2.22095179E-07 -3.62187811E-15  1.34682634E-12
  5.93250477E-01  1.27939729E-02 -5.12582736E-04 -3.06786073E-04  1.26027498E-10
 -3.51431807E-04  2.59727014E-04  1.61368919E-04 -7.96622702E-11 -1.65966763E-03
 -1.70930124E-03 -1.71371493E-03  5.35219266E-05  2.17638680E-10  1.88465766E-10
  3.23462888E-05  1.60454016E-04  6.23162028E-05 -5.02161101E-05 -4.27480148E-11
  3.33959582E-05  1.61938224E-04 -1.35587538E-05  8.02176107E-05  2.94308504E-12
  7.99583016E-01  1.72443426E-02  6.91341648E-04 -4.12475356E-04  5.46747231E-10
 -4.78092499E-04 -3.50933588E-04  2.14796846E-04 -2.67989379E-10 -2.23579573E-03
 -2.30308819E-03 -2.31012161E-03 -7.18835609E-05  4.18672350E-10 -2.15325983E-10
  4.36639855E-05  2.17359236E-04 -8.44475055E-05 -6.78628345E-05  1.37036975E-11
  4.44104961E-05  2.18980872E-04  1.82811549E-05  1.07969365E-04 -5.20765426E-11
 -2.54515090E-07  4.66333289E-07  2.21862219E-05  2.24292830E-06  2.65689179E-12
  3.55578562E-06 -4.18799814E-05 -3.77752235E-06 -6.97997295E-12 -3.05062126E-06
 -3.31383781E-06 -2.50006432E-06  2.93423576E-07 -4.95389519E-12  1.59912523E-12
 -8.10910518E-08 -2.81852759E-07 -1.87067091E-06  1.61329226E-07 -3.64825825E-13
  1.31358287E-06  6.01677133E-06 -6.50278842E-07  9.00074243E-13 -3.18088392E-07
 -1.16992802E-07 -3.15143125E-07 -1.49923948E-06 -1.45040315E-14 -4.18030210E-13
  7.99584137E-01  1.72459015E-02 -6.92527630E-04 -4.09998296E-04  1.57938965E-10
 -4.88950071E-04  3.53076080E-04  2.08192414E-04 -1.11942649E-10 -2.23310161E-03
 -2.30136443E-03 -2.31103289E-03  7.12608064E-05  2.91775408E-10  2.53500239E-10
  4.38304958E-05  2.20053132E-04  8.55691996E-05 -6.83082178E-05 -5.93648839E-11
  4.29393134E-05  2.20745912E-04 -1.82976199E-05  1.07606979E-04  2.54113463E-12
 -5.93251988E-01 -1.27960723E-02 -5.14179397E-04  3.03448456E-04 -3.95194573E-10
  3.66065765E-04  2.62613060E-04 -1.52468058E-04  2.04507306E-10  1.65603185E-03
  1.70697350E-03  1.71495178E-03  5.26840642E-05 -3.13116052E-10  1.60617891E-10
 -3.25702631E-05 -1.64084198E-04  6.38277307E-05  5.08160318E-05 -1.05958490E-11
 -3.14132562E-05 -1.64317190E-04 -1.35808741E-05 -7.97293163E-05  3.77413169E-11
  9.96400676E-01  2.18990899E-02 -1.11629421E-09  4.28520255E-04  2.59841437E-10
 -5.47493613E-03  8.91958210E-10 -2.81208574E-04 -1.19191253E-10 -1.69719431E-03
 -6.91241501E-04 -1.59591395E-03  9.05170978E-10  1.98886469E-11  3.12526652E-10
 -7.66976210E-05 -3.16419194E-04  5.78936955E-11  4.30114963E-05 -3.81641461E-12
  1.17022497E-03 -8.59142501E-12 -6.11056340E-04  2.69009533E-11 -2.88348906E-04
 -4.69131243E-05 -2.88188107E-04 -9.33305199E-12  5.54269294E-15 -1.16209407E-11
 -5.52131931E-05 -1.58671358E-04 -6.65703597E-05 -4.31087869E-05 -1.67851324E-11
  7.11670254E-04  4.05178203E-04  2.64439511E-04 -6.57600445E-12 -5.85684706E-05
 -1.31352751E-04 -1.75042736E-04  8.70474047E-05 -2.55734357E-12 -1.22328111E-13
 -9.37377750E-06  7.59772390E-06 -1.22763178E-05 -1.02272164E-05 -6.15796830E-13
 -3.01563222E-06  1.36779619E-05 -1.34015643E-05 -1.76357814E-06  9.02845268E-14
 -5.52131308E-05 -1.58671246E-04  6.65702987E-05 -4.31087153E-05  4.36076638E-12
  7.11669584E-04 -4.05177891E-04  2.64439128E-04  1.05223153E-11 -5.85683828E-05
 -1.31352640E-04 -1.75042584E-04 -8.70472930E-05 -5.16365173E-12  2.56234613E-12
 -9.37369972E-06  7.59774132E-06  1.22762402E-05 -1.02272019E-05 -7.98506453E-13
 -3.01561722E-06  1.36779584E-05  1.34015497E-05 -1.76358683E-06 -4.44597103E-12
 -1.11776636E-02  2.45311505E-02  1.49466882E-08  2.26122927E-02  3.75254661E-09
  2.31214692E-02  1.07581026E-08  8.29685606E-03  1.65622687E-09 -9.93703694E-04
  2.15728307E-03 -9.72508371E-04  1.94802355E-09  3.82223336E-11  4.26467460E-10
 -2.30343149E-01  5.42827772E-01  7.89605779E-09  6.65795909E-03 -1.78999903E-09
  5.30731588E-01  1.66408245E-08  1.33380882E-03 -1.78392392E-09  6.63095074E-03
  5.13602640E-04  6.60956532E-03  6.32960506E-09  9.36613449E-13  1.24854810E-09
 -7.19802295E-04  1.85239826E-03  2.47585937E-04  2.85809059E-04  2.60469496E-10
  1.38092435E-03 -1.40729106E-04  3.93071774E-05  1.44763073E-10  1.96500205E-07
  4.68020998E-05  6.22159596E-05 -1.69583781E-05  1.96484974E-11  1.14239491E-11
 -5.35187396E-05 -1.47782407E-05 -1.13371569E-06 -1.20594569E-06  3.75776606E-13
  1.09310806E-05 -1.05312250E-05 -2.61970466E-07  7.35318555E-06  2.01896959E-12
 -7.19810725E-04  1.85241951E-03 -2.47585724E-04  2.85810538E-04 -2.74597710E-10
  1.38094146E-03  1.40733100E-04  3.93071265E-05 -1.83127466E-10  1.96484678E-07
  4.68026669E-05  6.22160135E-05  1.69585616E-05  8.15226423E-12 -4.99306931E-12
 -5.35182939E-05 -1.47793218E-05  1.13371238E-06 -1.20599145E-06 -1.76197897E-12
  1.09319899E-05 -1.05305484E-05  2.61972155E-07  7.35337760E-06 -5.25050095E-12
 -2.06022627E-02  4.46842574E-02  3.29900660E-06 -1.47466149E-02 -3.99608345E-10
  4.41082467E-02  1.33338757E-06 -3.89345762E-03  3.68767883E-10  3.13857097E-04
 -4.57519717E-04 -1.32782606E-03 -3.10176805E-07  2.32548569E-10  4.09321564E-11
  2.66711613E-03 -6.24500323E-03  9.91920473E-08 -1.38134382E-03 -1.09337152E-10
 -7.06804420E-03  9.09543437E-08 -4.85408627E-04  4.09394932E-11 -2.45194019E-05
  1.47631558E-04 -4.17902204E-05 -7.18717417E-09 -9.44400936E-13 -4.32632386E-11
 -1.57081411E-01  3.62929076E-01  6.22712706E-03  4.55786102E-03  1.65585757E-09
  3.89763587E-01 -2.50618797E-03 -1.08314853E-05  5.93425116E-09 -3.81551080E-03
 -2.18767106E-03 -6.62028922E-03 -3.22671288E-04 -3.81660327E-11  2.15416795E-09
  2.37364723E-02  1.97309831E-02  1.96768267E-03 -1.31991096E-03 -1.26785585E-09
  2.42336249E-02  2.12509394E-02 -1.86709310E-04  2.55338087E-03  8.19461005E-11
 -1.57159869E-01  3.63110757E-01 -6.22947295E-03  4.55975210E-03 -2.74444770E-09
  3.89958011E-01  2.50838615E-03 -1.08805673E-05  5.11714206E-09 -3.81728650E-03
 -2.18854808E-03 -6.62363043E-03  3.22856955E-04  1.64979683E-09 -2.99661547E-09
  2.37484306E-02  1.97408015E-02 -1.96866593E-03 -1.32057185E-03  6.19936068E-11
  2.42458750E-02  2.12615104E-02  1.86807386E-04  2.55469948E-03 -1.44302496E-09
 -5.19219370E-06  1.12572973E-05 -1.34299794E-02 -3.68845237E-06 -1.44363377E-09
  1.11558296E-05 -5.47642911E-03 -9.93277842E-07 -2.47769022E-10  7.47350726E-08
 -1.18066182E-07 -3.35306492E-07  1.26273089E-03 -5.72946628E-11  1.86710014E-10
  6.60496175E-07 -1.54850706E-06 -4.10877543E-04 -3.50318583E-07  3.02433520E-11
 -1.75072499E-06 -3.69618586E-04 -1.27398803E-07  2.02799627E-12 -6.99666098E-09
  3.72268066E-08 -1.12671541E-08  2.80039519E-05 -2.84897108E-12 -5.58718123E-12
 -1.58354761E-01  3.66477383E-01  4.85774134E-03  3.92561341E-03 -2.24803677E-09
  3.92669942E-01 -4.23296525E-03  7.29832645E-05  2.52683255E-09 -3.62208471E-03
 -1.84660864E-03 -6.71285033E-03 -3.76781760E-04 -3.13451611E-10  2.11076243E-09
  2.42244500E-02  1.99318516E-02  1.98409287E-03 -1.33649212E-03 -1.33140751E-09
  2.47018133E-02  2.14265133E-02 -1.96788517E-04  2.64302669E-03 -1.88684720E-11
  1.58276933E-01 -3.66297671E-01  4.85456254E-03 -3.92328676E-03  3.71447504E-09
 -3.92476706E-01 -4.23184481E-03 -7.28957748E-05 -4.09420420E-09  3.62017592E-03
  1.84548602E-03  6.70958590E-03 -3.76621637E-04 -1.87678702E-09  3.09770030E-09
 -2.42126500E-02 -1.99220234E-02  1.98311854E-03  1.33583718E-03 -1.01257615E-10
 -2.46898223E-02 -2.14159408E-02 -1.96696793E-04 -2.64177112E-03  1.45600455E-09
 -2.24685970E-01  5.01933736E-01  1.26175008E-07 -1.51176368E-03  8.92490011E-10
  5.66400473E-01  1.72820370E-07 -8.83375278E-04  3.54460071E-09 -1.28219605E-02
 -5.81703784E-03 -1.15511651E-02 -3.18966124E-09  1.38233648E-09  1.36667535E-09
  1.91133685E-02 -5.14486537E-02 -3.17100069E-08 -3.62608425E-02 -5.89156129E-09
 -4.94880016E-02 -1.38648337E-08 -3.05283752E-02 -2.12076585E-09 -3.46335365E-03
  3.25900873E-03 -3.46042970E-03 -3.21442417E-09  1.65820964E-12 -4.85257636E-10
  2.09022642E-02 -4.82496310E-02  4.12545996E-02  2.53232675E-02  7.15322059E-09
 -6.13843935E-02  2.86868089E-02  1.54185564E-02 -1.45364499E-09  1.44847536E-03
 -2.62280273E-04  1.29432770E-03  1.60564968E-03  9.00811989E-11 -8.36886586E-10
 -1.10650703E-02 -1.26820810E-02 -6.46593771E-04  6.10555473E-04  5.71433706E-10
 -1.09282807E-02 -1.30593871E-02  2.71145605E-04 -1.04137563E-03  1.55170605E-11
  2.09021322E-02 -4.82493292E-02 -4.12550320E-02  2.53235616E-02 -2.35851073E-08
 -6.13840697E-02 -2.86871187E-02  1.54187612E-02 -1.28151348E-08  1.44847014E-03
 -2.62292801E-04  1.29432689E-03 -1.60564938E-03 -1.23844142E-09  1.48052977E-09
 -1.10651012E-02 -1.26821289E-02  6.46594889E-04  6.10557957E-04 -1.25316761E-10
 -1.09283341E-02 -1.30594457E-02 -2.71148606E-04 -1.04138111E-03  5.53031442E-10
  3.41438563E-08 -7.35675153E-08  1.62696348E-02 -3.07218001E-07 -2.56647174E-09
 -1.09287625E-07  3.68377817E-02 -1.98908511E-07 -5.00152745E-09  1.32470787E-08
 -1.14997867E-08  2.64788837E-09  3.64529884E-03  1.87414093E-10 -4.79004000E-10
 -7.27978503E-09  3.08181901E-10  6.66625592E-01  6.18961263E-07 -9.44553291E-08
  6.63653292E-08  4.75337895E-01  4.44812330E-07 -6.73436335E-08  6.87893555E-09
 -1.88279137E-08 -9.17571099E-09 -5.11849581E-04 -5.10102967E-10  7.08981455E-11
 -3.67035722E-04 -2.22254630E-03 -1.03930723E-02 -1.91182554E-02 -1.41589715E-08
  6.32127421E-03 -2.98025220E-03 -1.25937340E-02 -9.78768545E-09 -8.99192545E-04
 -2.05090415E-04 -1.37641918E-03  3.60294632E-04  6.87806399E-11  7.91450287E-12
  4.62822999E-04 -6.63372091E-05 -3.94322684E-05 -1.38469917E-04 -1.05897837E-10
  9.17225628E-03  1.56008668E-02 -8.94359788E-05  4.58851036E-04 -2.80332273E-11
  3.66986319E-04  2.22270520E-03 -1.03934659E-02  1.91193505E-02 -2.34298727E-08
 -6.32112412E-03 -2.98055009E-03  1.25946111E-02 -1.72030706E-08  8.99212546E-04
  2.05044658E-04  1.37643639E-03  3.60309897E-04 -3.05407404E-10  8.70123501E-10
 -4.62752713E-04  6.64310176E-05 -3.94385271E-05  1.38472973E-04 -1.27961295E-10
 -9.17278871E-03 -1.56017762E-02 -8.94400614E-05 -4.58877355E-04  2.04216665E-10
 -3.49584096E-09  8.82310020E-09  1.89422816E-09 -2.36784407E-08  1.46473866E-02
  8.63265558E-09  5.26676961E-09 -1.83311009E-08  3.03156981E-02  3.55611746E-10
 -1.10377709E-09  5.14965508E-10  5.44381422E-10  1.16901908E-09  3.84043071E-03
 -1.20970758E-09  4.11635502E-09  9.51324069E-08  7.79830409E-08  6.68489058E-01
  2.49451371E-09  6.78197904E-08  5.62533117E-08  4.76797570E-01  6.69818801E-10
  4.72892977E-12 -2.25676888E-10 -7.02453868E-11  9.05683786E-09 -5.04417073E-04
 -1.57615721E-10  7.29387786E-10  1.53820136E-08  5.29532983E-09  2.80731186E-03
  7.12739660E-10  1.27068554E-08  4.26095771E-09  1.25103158E-03 -2.07808980E-10
 -2.12941295E-10  1.70674259E-10  2.25015383E-10  3.18665404E-05  1.09590795E-05
 -4.45880583E-09 -7.18869832E-09 -1.34595540E-10  1.63884331E-10  1.57233587E-05
 -2.32456587E-09 -3.77499852E-09  1.08801238E-10 -1.29863486E-10  1.97946413E-05
  3.71727114E-10 -2.22552822E-10 -1.12034283E-08  2.55904576E-09  2.80730083E-03
 -2.11227804E-09 -8.20543559E-09  1.80588532E-09  1.25102720E-03 -4.92372709E-11
  7.82809503E-11  3.51124497E-10 -2.22744486E-10 -3.18667686E-05  1.09592273E-05
 -4.15117860E-09 -7.07626193E-09  1.72050365E-10  1.60853994E-10  1.57232607E-05
 -1.22527960E-09 -1.76576746E-09 -7.64492617E-11 -1.37058059E-11  1.97946049E-05
 -1.55850030E-03  1.83095240E-03  4.62867912E-06  7.35872637E-02  1.81585285E-08
  6.74246623E-03  4.51557065E-06  5.97054959E-02  1.48947675E-08  1.05786789E-03
 -1.17659950E-03 -4.47722178E-04  3.89818877E-08 -7.90182226E-10  3.63886014E-10
  3.20912831E-03 -7.91029210E-03 -1.06678767E-05 -1.58177182E-02  1.38730470E-08
 -1.30068508E-02 -7.44123664E-06 -1.11838581E-02  1.03820807E-08 -1.40161178E-04
  1.18041715E-03 -2.04349051E-04 -1.45991567E-08 -3.28883535E-12 -1.24892248E-10
 -7.54484754E-04  1.55737409E-04 -1.62022299E-01  2.31291224E-01  1.30739088E-07
  5.68968106E-03 -1.29732468E-01  1.87978055E-01  1.03863119E-07  1.15425442E-02