CrystalExplorer Job                                                     
SP        RHF                                                         STO-3G              
Number of atoms                            I                8
Charge                                     I                0
Multiplicity                               I                1
Number of electrons                        I               32
Number of alpha electrons                  I               16
Number of beta electrons                   I               16
Number of basis functions                  I               24
Number of independant functions            I               24
Number of point charges in /Mol/           I                0
Number of translation vectors              I                0
Number of symbols in /Mol/                 I                0
Info1-9                                    I   N=           9
          14          14           0           0           0         110
           1           1           2
Num ILSW                                   I              100
ILSW                                       I   N=         100
           0           1           0           0           2           0
           0           0           3           0           0     1000000
           0           0           0           1           0           0
           0     1000000           0           0           0           0
           1           1           0           0     1000000           0
           0           0           0           0          -1           0
           0           0           0           0           0           0
           0           0           0           1           0           0
           0           0           1     1000000     1000000           0
           0           0           0           0           0           0
           0           0           0           0           0           0
           0           0           0           0           0           0
           0           0           0           0           0           0
           0           0           0           0           0           0
           0           0           0           0           0           0
           0           0           0           0           0           0
           0           0           0           0
Number of contracted shells                I               12
Highest angular momentum                   I                1
Largest degree of contraction              I                3
Number of primitive shells                 I               36
Pure/Cartesian d shells                    I                1
Pure/Cartesian f shells                    I                1
Virial Ratio                               R      2.007938765338475E+00
SCF Energy                                 R     -2.210040989711986E+02
Total Energy                               R     -2.210040989711986E+02
RMS Density                                R      1.077793869636490E-04
Atomic numbers                             I   N=           8
           6           8           7           1           1           7
           1           1
Nuclear charges                            R   N=           8
  6.00000000E+00  8.00000000E+00  7.00000000E+00  1.00000000E+00  1.00000000E+00
  7.00000000E+00  1.00000000E+00  1.00000000E+00
Current cartesian coordinates              R   N=          24
  0.00000000E+00  5.28083968E+00  2.91257820E+00  0.00000000E+00  5.28083968E+00
  5.29019194E+00  1.52827444E+00  6.80911412E+00  1.58270989E+00  2.69945866E+00
  7.98030024E+00  2.52728005E+00  1.50799579E+00  6.78883736E+00 -3.23815911E-01
 -1.52827444E+00  3.75256524E+00  1.58270989E+00 -2.69946055E+00  2.58137913E+00
  2.52728005E+00 -1.50799768E+00  3.77284390E+00 -3.23815911E-01
Atom Types                                 C   N=           8
                                                            
                                    
Int Atom Types                             I   N=           8
           0           0           0           0           0           0
           0           0
Force Field                                I                0
MM charges                                 R   N=           8
  0.00000000E+00  0.00000000E+00  0.00000000E+00  0.00000000E+00  0.00000000E+00
  0.00000000E+00  0.00000000E+00  0.00000000E+00
Integer atomic weights                     I   N=           8
          12          16          14           1           1          14
           1           1
Real atomic weights                        R   N=           8
  1.20000000E+01  1.59949146E+01  1.40030740E+01  1.00782504E+00  1.00782504E+00
  1.40030740E+01  1.00782504E+00  1.00782504E+00
Atom residue info                          I   N=           8
           0           0           0           0           0           0
           0           0
Atom fragment info                         I   N=           8
           0           0           0           0           0           0
           0           0
Atom residue num                           I   N=           8
           0           0           0           0           0           0
           0           0
Nuclear spins                              I   N=           8
           0           0           2           1           1           2
           1           1
Nuclear ZEff                               R   N=           8
 -3.60000000E+00 -5.60000000E+00 -4.55000000E+00 -1.00000000E+00 -1.00000000E+00
 -4.55000000E+00 -1.00000000E+00 -1.00000000E+00
Nuclear QMom                               R   N=           8
  0.00000000E+00  0.00000000E+00  1.56000000E+00  0.00000000E+00  0.00000000E+00
  1.56000000E+00  0.00000000E+00  0.00000000E+00
Nuclear GFac                               R   N=           8
  0.00000000E+00  0.00000000E+00  4.03761000E-01  2.79284600E+00  2.79284600E+00
  4.03761000E-01  2.79284600E+00  2.79284600E+00
MicOpt                                     I   N=           8
           0           0           0           0           0           0
           0           0
Constraint Structure                       R   N=          24
  0.00000000E+00  5.28083968E+00  2.91257820E+00  0.00000000E+00  5.28083968E+00
  5.29019194E+00  1.52827444E+00  6.80911412E+00  1.58270989E+00  2.69945866E+00
  7.98030024E+00  2.52728005E+00  1.50799579E+00  6.78883736E+00 -3.23815911E-01
 -1.52827444E+00  3.75256524E+00  1.58270989E+00 -2.69946055E+00  2.58137913E+00
  2.52728005E+00 -1.50799768E+00  3.77284390E+00 -3.23815911E-01
ONIOM Charges                              I   N=          16
           0           0           0           0           0           0
           0           0           0           0           0           0
           0           0           0           0
ONIOM Multiplicities                       I   N=          16
           1           0           0           0           0           0
           0           0           0           0           0           0
           0           0           0           0
Atom Layers                                I   N=           8
           1           1           1           1           1           1
           1           1
Atom Modifiers                             I   N=           8
           0           0           0           0           0           0
           0           0
Atom Modified Types                        C   N=           8
                                                            
                                    
Int Atom Modified Types                    I   N=           8
           0           0           0           0           0           0
           0           0
Link Atoms                                 I   N=           8
           0           0           0           0           0           0
           0           0
Atom Modified MM Charges                   R   N=           8
  0.00000000E+00  0.00000000E+00  0.00000000E+00  0.00000000E+00  0.00000000E+00
  0.00000000E+00  0.00000000E+00  0.00000000E+00
Link Distances                             R   N=          32
  0.00000000E+00  0.00000000E+00  0.00000000E+00  0.00000000E+00  0.00000000E+00
  0.00000000E+00  0.00000000E+00  0.00000000E+00  0.00000000E+00  0.00000000E+00
  0.00000000E+00  0.00000000E+00  0.00000000E+00  0.00000000E+00  0.00000000E+00
  0.00000000E+00  0.00000000E+00  0.00000000E+00  0.00000000E+00  0.00000000E+00
  0.00000000E+00  0.00000000E+00  0.00000000E+00  0.00000000E+00  0.00000000E+00
  0.00000000E+00  0.00000000E+00  0.00000000E+00  0.00000000E+00  0.00000000E+00
  0.00000000E+00  0.00000000E+00
MxBond                                     I                3
NBond                                      I   N=           8
           3           1           3           1           1           3
           1           1
IBond                                      I   N=          24
           2           3           6           1           0           0
           1           4           5           3           0           0
           3           0           0           1           7           8
           6           0           0           6           0           0
RBond                                      R   N=          24
  2.00000000E+00  1.41000000E+00  1.41000000E+00  2.00000000E+00  0.00000000E+00
  0.00000000E+00  1.41000000E+00  1.00000000E+00  1.00000000E+00  1.00000000E+00
  0.00000000E+00  0.00000000E+00  1.00000000E+00  0.00000000E+00  0.00000000E+00
  1.41000000E+00  1.00000000E+00  1.00000000E+00  1.00000000E+00  0.00000000E+00
  0.00000000E+00  1.00000000E+00  0.00000000E+00  0.00000000E+00
Shell types                                I   N=          12
           0          -1           0          -1           0          -1
           0           0           0          -1           0           0
Number of primitives per shell             I   N=          12
           3           3           3           3           3           3
           3           3           3           3           3           3
Shell to atom map                          I   N=          12
           1           1           2           2           3           3
           4           5           6           6           7           8
Primitive exponents                        R   N=          36
  7.16168373E+01  1.30450963E+01  3.53051216E+00  2.94124936E+00  6.83483096E-01
  2.22289916E-01  1.30709321E+02  2.38088661E+01  6.44360831E+00  5.03315132E+00
  1.16959612E+00  3.80388960E-01  9.91061690E+01  1.80523124E+01  4.88566024E+00
  3.78045588E+00  8.78496645E-01  2.85714374E-01  3.42525091E+00  6.23913730E-01
  1.68855404E-01  3.42525091E+00  6.23913730E-01  1.68855404E-01  9.91061690E+01
  1.80523124E+01  4.88566024E+00  3.78045588E+00  8.78496645E-01  2.85714374E-01
  3.42525091E+00  6.23913730E-01  1.68855404E-01  3.42525091E+00  6.23913730E-01
  1.68855404E-01
Contraction coefficients                   R   N=          36
  1.54328967E-01  5.35328142E-01  4.44634542E-01 -9.99672292E-02  3.99512826E-01
  7.00115469E-01  1.54328967E-01  5.35328142E-01  4.44634542E-01 -9.99672292E-02
  3.99512826E-01  7.00115469E-01  1.54328967E-01  5.35328142E-01  4.44634542E-01
 -9.99672292E-02  3.99512826E-01  7.00115469E-01  1.54328967E-01  5.35328142E-01
  4.44634542E-01  1.54328967E-01  5.35328142E-01  4.44634542E-01  1.54328967E-01
  5.35328142E-01  4.44634542E-01 -9.99672292E-02  3.99512826E-01  7.00115469E-01
  1.54328967E-01  5.35328142E-01  4.44634542E-01  1.54328967E-01  5.35328142E-01
  4.44634542E-01
P(S=P) Contraction coefficients            R   N=          36
  0.00000000E+00  0.00000000E+00  0.00000000E+00  1.55916275E-01  6.07683719E-01
  3.91957393E-01  0.00000000E+00  0.00000000E+00  0.00000000E+00  1.55916275E-01
  6.07683719E-01  3.91957393E-01  0.00000000E+00  0.00000000E+00  0.00000000E+00
  1.55916275E-01  6.07683719E-01  3.91957393E-01  0.00000000E+00  0.00000000E+00
  0.00000000E+00  0.00000000E+00  0.00000000E+00  0.00000000E+00  0.00000000E+00
  0.00000000E+00  0.00000000E+00  1.55916275E-01  6.07683719E-01  3.91957393E-01
  0.00000000E+00  0.00000000E+00  0.00000000E+00  0.00000000E+00  0.00000000E+00
  0.00000000E+00
Coordinates of each shell                  R   N=          36
  0.00000000E+00  5.28083968E+00  2.91257820E+00  0.00000000E+00  5.28083968E+00
  2.91257820E+00  0.00000000E+00  5.28083968E+00  5.29019194E+00  0.00000000E+00
  5.28083968E+00  5.29019194E+00  1.52827444E+00  6.80911412E+00  1.58270989E+00
  1.52827444E+00  6.80911412E+00  1.58270989E+00  2.69945866E+00  7.98030024E+00
  2.52728005E+00  1.50799579E+00  6.78883736E+00 -3.23815911E-01 -1.52827444E+00
  3.75256524E+00  1.58270989E+00 -1.52827444E+00  3.75256524E+00  1.58270989E+00
 -2.69946055E+00  2.58137913E+00  2.52728005E+00 -1.50799768E+00  3.77284390E+00
 -3.23815911E-01
Alpha Orbital Energies                     R   N=          24
 -2.01353460E+01 -1.53460945E+01 -1.53460760E+01 -1.11689470E+01 -1.28393005E+00
 -1.14152831E+00 -1.10364400E+00 -7.58123960E-01 -6.68578669E-01 -6.65878809E-01
 -5.79883523E-01 -5.33210012E-01 -4.47497841E-01 -3.52402508E-01 -2.91552819E-01
 -2.61074297E-01  3.80139000E-01  5.58662818E-01  6.15057320E-01  6.49061584E-01
  7.18939714E-01  7.96615937E-01  9.54217083E-01  1.04399372E+00
Alpha MO coefficients                      R   N=         576
  5.84042503E-04 -6.78406376E-03  2.56166943E-12 -5.84774223E-12 -6.13394636E-03
  9.94261031E-01  2.56788394E-02  1.95326129E-11  1.47535834E-11 -5.30955247E-03
 -2.88142423E-05  3.63829456E-04  1.31025958E-04  1.31026042E-04  5.63373520E-04
 -2.25796664E-04  2.68082296E-05 -2.88142257E-05  3.63829186E-04 -1.31025868E-04
 -1.31025887E-04  5.63373375E-04 -2.25796283E-04  2.68082112E-05  7.10866474E-04
 -9.38344625E-03 -1.32254864E-06 -1.32321582E-06  3.82420966E-03 -5.78131775E-05
  5.14013209E-04  1.06089462E-07  1.06157695E-07 -2.47600575E-04  7.02499799E-01
  2.37537708E-02 -6.15423680E-04 -6.15417318E-04  3.40818878E-04 -4.61935188E-03
 -4.58531205E-03  7.02069372E-01  2.37395649E-02  6.15235724E-04  6.15238938E-04
  3.40530281E-04 -4.61655045E-03 -4.58246874E-03  2.17854736E-07 -2.87549549E-06
  4.31666991E-03  4.31667012E-03  1.17200954E-06 -1.76915525E-08  1.57360378E-07
 -3.46048725E-04 -3.46048784E-04 -7.58309270E-08 -7.02095455E-01 -2.31641688E-02
  3.02195478E-04  3.02189286E-04 -4.66026936E-04  4.56100222E-03  4.63850119E-03
  7.02525868E-01  2.31787179E-02  3.02570052E-04  3.02573115E-04  4.66232952E-04
 -4.56382737E-03 -4.64131094E-03  9.92613429E-01  3.29090123E-02 -5.92355674E-11
  3.37292177E-11 -1.30322459E-03  2.10711713E-04 -5.21014314E-03  1.74118708E-11
  2.02400499E-11  1.69866619E-03  3.33944116E-04 -5.96926114E-03  2.20581285E-03
  2.20581324E-03 -1.84758911E-03 -4.98746927E-04 -3.76862536E-04  3.33944180E-04
 -5.96926179E-03 -2.20581284E-03 -2.20581268E-03 -1.84758943E-03 -4.98745856E-04
 -3.76862590E-04 -1.55784519E-01  3.63884847E-01  6.15148298E-09  2.61614507E-08
  6.40209799E-02 -1.56326483E-01  5.38236049E-01 -4.11120856E-10  7.43211514E-09
 -1.27785740E-01 -8.74561496E-02  2.73823794E-01 -3.93312757E-02 -3.93311969E-02
  3.45417461E-02  3.82710990E-02  3.83615601E-02 -8.74560964E-02  2.73823632E-01
  3.93312393E-02  3.93312805E-02  3.45417048E-02  3.82710298E-02  3.83615407E-02
  1.89574406E-02 -2.97598443E-02 -1.04718142E-07 -1.27917488E-07  2.45208863E-01
 -1.55477748E-01  5.55427008E-01 -1.89321401E-08 -1.48358096E-08 -7.45280791E-02
  1.19008449E-01 -3.89221778E-01  2.44653665E-02  2.44652322E-02  1.32729202E-02
 -6.41378846E-02 -8.60371379E-02  1.19008139E-01 -3.89220770E-01 -2.44653054E-02
 -2.44653778E-02  1.32729956E-02 -6.41376096E-02 -8.60369537E-02  6.33752923E-08
 -1.52961115E-07  1.36353678E-01  1.36353688E-01  2.52236574E-07 -1.25426877E-07
  4.52759844E-07  2.16082465E-02  2.16082492E-02 -4.53245462E-08 -1.61261164E-01
  5.35441803E-01  7.80314332E-04  7.80503793E-04  1.33538110E-02  1.15299605E-01
  1.10681419E-01  1.61261404E-01 -5.35442615E-01  7.80282519E-04  7.80188414E-04
 -1.33537000E-02 -1.15299606E-01 -1.10681634E-01 -1.36606587E-01  4.25790345E-01
  8.36821105E-08  4.90696984E-08 -1.94224625E-01  5.78411943E-02 -2.41568441E-01
  1.82369591E-08 -5.66653946E-09 -7.76684141E-02  4.52390270E-02 -1.78009169E-01
 -2.44242339E-01 -2.44242611E-01  1.11472461E-01 -2.09348314E-01 -1.31899037E-01
  4.52390851E-02 -1.78009428E-01  2.44242328E-01  2.44242200E-01  1.11472717E-01
 -2.09348123E-01 -1.31899276E-01 -6.05366593E-07  1.94507186E-06  2.49504930E-01
  2.49504958E-01  8.38776571E-07  8.81882364E-07 -4.01980653E-06  1.24749831E-01
  1.24749844E-01 -1.54731405E-06  1.15108478E-02 -5.61379635E-02 -7.68054470E-02
 -7.68056300E-02  3.86573872E-01  4.73840980E-02 -2.94441273E-01 -1.15109864E-02
  5.61386011E-02 -7.68085380E-02 -7.68083116E-02 -3.86563766E-01 -4.73780388E-02
  2.94433736E-01 -4.36564426E-02  1.40778582E-01 -3.55540704E-06 -3.64645547E-06
  6.58994644E-02  6.50476173E-02 -2.97079136E-01 -1.74113308E-06 -1.78160756E-06
 -1.15686652E-01 -6.24741306E-03  2.85190344E-02  1.11338089E-01  1.11338008E-01
  3.72736168E-01  2.27766849E-01 -2.78142838E-01 -6.24716921E-03  2.85178149E-02
 -1.11335288E-01 -1.11335544E-01  3.72746301E-01  2.27767566E-01 -2.78150522E-01
  1.53720234E-08 -6.57234752E-08 -2.10182145E-01 -2.10181739E-01 -1.76988480E-07
 -5.90268176E-08  2.86144795E-07 -7.27162303E-02 -7.27160187E-02  1.62636919E-07
  1.12223637E-02 -4.25361275E-02  3.01989880E-01  3.01990397E-01  1.36822927E-01
  3.41366839E-01 -1.26046562E-01 -1.12223106E-02  4.25358339E-02  3.01990296E-01
  3.01990744E-01 -1.36823478E-01 -3.41367511E-01  1.26046949E-01  4.79692128E-08
 -1.69674222E-07  3.60070295E-01 -3.60070551E-01 -9.79416535E-08 -4.89958624E-08
  2.41496127E-07  2.05328460E-01 -2.05328553E-01  1.84636116E-07 -5.62710093E-08
  2.55781509E-07  3.17807489E-01 -3.17806929E-01 -1.60313566E-08  1.75448455E-07
 -1.18581144E-07 -4.55043920E-08  1.99036216E-07  3.17807315E-01 -3.17806924E-01
 -2.80728209E-07 -2.29080826E-07  7.12406351E-08  6.22029818E-02 -2.42612770E-01
 -1.29082835E-07  1.39799153E-07 -4.49394799E-01 -1.04819488E-01  5.51303370E-01
 -8.57926759E-08  8.29812287E-08  6.23453023E-01 -1.53744664E-02  6.32230863E-02
 -4.61920211E-02 -4.61917893E-02  1.55691726E-01  6.31111648E-02 -1.54292526E-01
 -1.53744681E-02  6.32231076E-02  4.61918257E-02  4.61918139E-02  1.55691788E-01
  6.31112679E-02 -1.54292589E-01  1.46721372E-08 -5.44707649E-08 -1.60916290E-07
  2.04690462E-10 -2.18110146E-08 -8.35725081E-09  4.53207095E-08 -3.68467482E-07
 -1.73012558E-07  9.21235254E-08 -1.03555875E-07  5.20267048E-07  5.04237234E-01
 -5.04236997E-01 -7.23751083E-08 -1.30310427E-07 -1.79456357E-07  4.94512226E-08
 -2.51775505E-07 -5.04237083E-01  5.04237019E-01  2.66611971E-07  4.78032044E-08
  1.00141022E-07  6.20637335E-10 -1.80899241E-09  2.73848308E-02  2.73848105E-02
 -1.64564674E-09  7.79444878E-10 -2.83148799E-09  6.66744261E-01  6.66744243E-01
  7.03789034E-09  3.33533709E-02 -1.78075806E-01  1.15860492E-01  1.15860073E-01
 -1.31940543E-01  4.23917058E-02  1.01233058E-01 -3.33533767E-02  1.78075822E-01
  1.15860053E-01  1.15860488E-01  1.31940554E-01 -4.23917130E-02 -1.01233083E-01
 -1.26405998E-08  3.59540065E-08  1.91344292E-01 -1.91344264E-01 -4.20762163E-08
 -8.18079291E-10  5.96137489E-09  5.28830577E-01 -5.28830594E-01  6.97930767E-08
  4.63418089E-08 -2.42719738E-07 -3.13868027E-01  3.13867767E-01  1.26570581E-07
  8.03419617E-08  9.02494242E-08  2.95942286E-08 -1.54529148E-07 -3.13868082E-01
  3.13868057E-01  1.98634210E-07  4.34428383E-08  7.01646570E-08 -2.24968347E-08
  7.93710564E-08  6.30869997E-01 -6.30869992E-01 -4.92172735E-08  6.31469014E-09
 -2.89849090E-08 -4.45060952E-01  4.45060942E-01  7.14232133E-08  9.27033889E-08
 -5.91058285E-07 -2.60495662E-01  2.60495252E-01  2.03203037E-07  3.96666304E-07
  4.08670319E-07  6.10256515E-08 -3.86042115E-07 -2.60495465E-01  2.60495499E-01
  2.87671677E-07  1.30695341E-07  3.59398479E-07  8.15010001E-02 -4.46885386E-01
  7.93741357E-07  1.13113617E-07  2.23388964E-01 -1.21358011E-02  6.18446035E-02
 -3.82778561E-07 -2.85403362E-08 -8.56398315E-02 -1.41688164E-01  9.48381981E-01
  1.08342651E-01  1.08343722E-01 -7.45130563E-02 -6.41473461E-01 -5.25481535E-01
 -1.41688718E-01  9.48385565E-01 -1.08344945E-01 -1.08344341E-01 -7.45129538E-02
 -6.41476914E-01 -5.25483585E-01  1.57015198E-07 -8.13599193E-07 -3.08880720E-01
 -3.08880848E-01 -8.48841307E-07 -1.35930082E-07  8.68739477E-07  1.30097037E-01
  1.30097106E-01 -1.32086891E-06 -1.29363789E-01  8.93234190E-01  9.31183301E-02
  9.31191730E-02 -2.15032751E-01 -4.40287538E-01 -7.35983202E-01  1.29363234E-01
 -8.93230287E-01  9.31191064E-02  9.31186367E-02  2.15028174E-01  4.40287885E-01
  7.35976888E-01  9.84277623E-03 -8.04982600E-02 -1.78461423E-06 -1.51904258E-06
  4.50136956E-01  3.45149915E-02 -2.33379462E-01  6.66949024E-07  5.68151273E-07
  3.54082037E-01 -1.01144917E-02  6.95033119E-02  6.63986835E-02  6.63984732E-02
  6.68232702E-01 -4.79176787E-01  6.21654667E-01 -1.01136622E-02  6.94973909E-02
 -6.64000418E-02 -6.64006068E-02  6.68236032E-01 -4.79177482E-01  6.21661405E-01
 -2.54901543E-07  1.61713766E-06 -3.02562220E-01 -3.02562038E-01 -1.89932996E-06
 -6.24007573E-08  4.71136204E-07  8.35924292E-02  8.35923395E-02 -6.99769133E-07
  3.42210139E-03 -2.40634448E-02 -4.76785374E-01 -4.76785716E-01 -3.43749823E-01
  7.42673653E-01 -3.40184891E-01 -3.42159756E-03  2.40597098E-02 -4.76785459E-01
 -4.76785743E-01  3.43746102E-01 -7.42669537E-01  3.40182970E-01 -2.21294238E-01
  1.42079115E+00  4.36710243E-07  2.91819563E-07 -1.60752382E-01  5.64134574E-02
 -3.68558836E-01 -1.20236724E-07 -4.88603818E-08  5.02111062E-01  4.37818807E-02
 -2.97636203E-01  4.71023713E-01  4.71024016E-01 -2.86572704E-01 -2.59472866E-01
 -9.69287684E-02  4.37819023E-02 -2.97636436E-01 -4.71023136E-01 -4.71023018E-01
 -2.86572819E-01 -2.59471750E-01 -9.69287999E-02  5.10959588E-08 -3.29991608E-07
  7.99683993E-01  7.99684005E-01 -5.26516718E-07 -5.13490517E-08  3.67341503E-07
 -1.87960789E-01 -1.87960794E-01 -4.45918858E-07  4.66044601E-02 -3.54548158E-01
  2.20643709E-01  2.20643887E-01 -7.07711849E-01  1.61943004E-01 -4.27191257E-01
 -4.66043984E-02  3.54547633E-01  2.20644019E-01  2.20643744E-01  7.07711963E-01
 -1.61942491E-01  4.27191465E-01 -3.15907968E-02  1.90122056E-01  2.48677931E-07
  2.35440821E-07  1.17620756E+00  9.18335810E-02 -6.68054909E-01 -6.89288855E-08
 -6.22829322E-08  7.54482856E-01 -2.36252172E-02  1.94741527E-01 -3.34810703E-01
 -3.34810745E-01 -2.73839490E-01  2.97001967E-01 -2.27689555E-01 -2.36252920E-02
  1.94742197E-01  3.34810488E-01  3.34810629E-01 -2.73838735E-01  2.97001124E-01
 -2.27689209E-01
Total SCF Density                          R   N=         300
  2.06869384E+00 -2.07998794E-01  7.88983779E-01  3.98535001E-09 -8.45819787E-09
  5.84106776E-01 -1.15027159E-08  3.87853475E-08 -8.09465751E-02  5.84106814E-01
 -2.18353538E-02  1.03137816E-01  3.93685180E-08 -3.64075885E-08  6.16603301E-01
  9.86854060E-03  4.41163049E-04 -3.38732996E-11 -1.15871240E-10 -2.81483686E-02
  2.11146053E+00  3.57261438E-03 -1.98914194E-01 -6.68779359E-09  3.98489431E-09
 -9.98128321E-02 -4.72101963E-01  2.09886150E+00 -7.56589387E-09  2.19379041E-08
  4.85468584E-01 -2.15017138E-01 -9.79346414E-09  2.88338924E-09 -1.36573796E-08
  1.57537334E+00  8.55374322E-09 -2.29424135E-08 -2.15017139E-01  4.85468571E-01
  1.49244102E-08 -2.29296529E-09  1.00696800E-08  2.88087012E-01  1.57537335E+00
  1.49236284E-01 -4.89602868E-01 -3.00836944E-08  1.06284395E-08 -5.98283244E-01
 -1.02165115E-01  5.73045922E-01  4.33288691E-08 -3.50422032E-08  8.60048449E-01
  1.96950742E-02 -3.96627568E-02 -4.71870868E-02 -4.71870566E-02  4.79585226E-02
 -2.15751961E-03  3.67700403E-03  3.92331670E-02  3.92331111E-02 -2.04863108E-02
  2.07590745E+00 -5.78786305E-02  4.73662802E-02  1.25932919E-01  1.25932786E-01
 -1.39545358E-01  6.00046423E-03  1.26948614E-03 -2.22126613E-01 -2.22126291E-01
  8.78846421E-02 -2.79863766E-01  1.17495423E+00  6.88228940E-02 -1.84156328E-01
 -4.99600156E-02 -2.67464552E-01  1.58016742E-01  8.64404039E-04 -1.42590716E-02
 -1.10006851E-01  2.92905756E-01 -3.90057918E-02  1.83251059E-03 -1.06845976E-02
  1.28125240E+00  6.88228690E-02 -1.84156259E-01 -2.67464391E-01 -4.99600513E-02
  1.58016688E-01  8.64408860E-04 -1.42590918E-02  2.92905526E-01 -1.10006774E-01
 -3.90057748E-02  1.83270857E-03 -1.06856780E-02 -5.33826219E-01  1.28125154E+00
 -5.75575367E-02  1.48543008E-01  1.31797383E-01  1.31797457E-01 -1.23176085E-01
  1.49408036E-02 -5.16809658E-02 -9.88134099E-02 -9.88135743E-02  7.97560994E-02
 -2.24712545E-03  1.61537069E-02  4.79065808E-03  4.79105194E-03  7.25436288E-01
  2.98082849E-02 -1.13043724E-01 -8.60505777E-02 -8.60506003E-02  2.80316817E-02
 -2.87299724E-04  5.33984533E-03  2.36843850E-02  2.36842286E-02  5.82961178E-02
 -8.41890847E-02  2.39978858E-01  3.49911463E-01  3.49912076E-01  2.65649547E-01
  4.78351773E-01  2.51584589E-02 -8.26701285E-02 -5.81734666E-02 -5.81735031E-02
  1.15936623E-01 -4.28471294E-03  4.58561322E-03  8.46424766E-02  8.46422959E-02
 -1.04522867E-01 -8.24103681E-02  2.25393837E-01  2.25841345E-03  2.25904848E-03
 -5.70334131E-01 -1.56749088E-01  5.05131134E-01  1.96950767E-02 -3.96627660E-02
  4.71870769E-02  4.71870947E-02  4.79585210E-02 -2.15751982E-03  3.67700602E-03
 -3.92331248E-02 -3.92331602E-02 -2.04863119E-02 -6.55816554E-03  2.86783411E-02
 -2.22915805E-02 -2.22915799E-02 -1.28112340E-03 -2.01596644E-02  7.72812048E-03
  2.07590745E+00 -5.78786322E-02  4.73662809E-02 -1.25932850E-01 -1.25932929E-01
 -1.39545348E-01  6.00046503E-03  1.26947880E-03  2.22126363E-01  2.22126565E-01
  8.78846644E-02  2.86783372E-02 -1.20674043E-01  1.04333866E-01  1.04333868E-01
  3.61306642E-03  9.23735322E-02 -2.66846968E-02 -2.79863798E-01  1.17495438E+00
 -6.88228643E-02  1.84156233E-01 -4.99599344E-02 -2.67464442E-01 -1.58016711E-01
 -8.64410931E-04  1.42591062E-02 -1.10006877E-01  2.92905622E-01  3.90057240E-02
  2.22915915E-02 -1.04333959E-01 -4.11068250E-02  1.77855264E-01 -1.93840017E-02
  6.79012399E-02 -1.67922109E-02 -1.83266698E-03  1.06853639E-02  1.28125189E+00
 -6.88228709E-02  1.84156243E-01 -2.67464495E-01 -4.99599992E-02 -1.58016686E-01
 -8.64402600E-04  1.42590631E-02  2.92905691E-01 -1.10006807E-01  3.90058273E-02
  2.22915548E-02 -1.04333750E-01  1.77855358E-01 -4.11068065E-02 -1.93840103E-02
  6.79011457E-02 -1.67922923E-02 -1.83257059E-03  1.06848373E-02 -5.33826238E-01
  1.28125191E+00 -5.75575438E-02  1.48543049E-01 -1.31797516E-01 -1.31797393E-01
 -1.23176088E-01  1.49408033E-02 -5.16809684E-02  9.88136114E-02  9.88133670E-02
  7.97561017E-02 -1.28112357E-03  3.61306484E-03  1.93840642E-02  1.93839706E-02
 -1.75353016E-02  2.17800910E-02  1.45534834E-03 -2.24712472E-03  1.61537622E-02
 -4.79122312E-03 -4.79048164E-03  7.25436222E-01  2.98082815E-02 -1.13043684E-01
  8.60505781E-02  8.60506061E-02  2.80317021E-02 -2.87297904E-04  5.33983449E-03
 -2.36842946E-02 -2.36843301E-02  5.82961184E-02 -2.01596660E-02  9.23735578E-02
 -6.79012436E-02 -6.79012076E-02  2.17800930E-02 -5.72016639E-02  2.87023946E-03
 -8.41890591E-02  2.39978953E-01 -3.49911869E-01 -3.49911822E-01  2.65649552E-01
  4.78351982E-01  2.51584667E-02 -8.26701642E-02  5.81735384E-02  5.81734850E-02
  1.15936635E-01 -4.28471426E-03  4.58561945E-03 -8.46423179E-02 -8.46424844E-02
 -1.04522876E-01  7.72811973E-03 -2.66846964E-02  1.67922812E-02  1.67922163E-02
  1.45535521E-03  2.87023854E-03  4.72600185E-03 -8.24103617E-02  2.25393763E-01
 -2.25899039E-03 -2.25841638E-03 -5.70334163E-01 -1.56749153E-01  5.05131206E-01
Cartesian Gradient                         R   N=          24
  0.00000000E+00  0.00000000E+00  0.00000000E+00  0.00000000E+00  0.00000000E+00
  0.00000000E+00  0.00000000E+00  0.00000000E+00  0.00000000E+00  0.00000000E+00
  0.00000000E+00  0.00000000E+00  0.00000000E+00  0.00000000E+00  0.00000000E+00
  0.00000000E+00  0.00000000E+00  0.00000000E+00  0.00000000E+00  0.00000000E+00
  0.00000000E+00  0.00000000E+00  0.00000000E+00  0.00000000E+00
Dipole Moment                              R   N=           3
 -1.20841964E-06  9.00618033E-07 -1.40897180E+00
QEq coupling tensors                       R   N=          48
 -2.04782404E-02 -1.02770775E-01 -2.04781848E-02  5.00433632E-08 -7.00122154E-08
  4.09564252E-02  9.17384220E-01  1.15595290E+00  9.17384243E-01  1.72446352E-07
 -1.38635472E-07 -1.83476846E+00  4.76310116E-01 -1.38056409E+00  4.76307876E-01
  1.30102394E-02  1.30112527E-02 -9.52617992E-01 -1.78460419E-02 -2.64006749E-01
 -1.78468441E-02 -1.79786018E-01 -1.79786286E-01  3.56928860E-02  2.12213538E-01
 -3.99413933E-02  2.12213492E-01 -3.52382375E-03 -3.52319007E-03 -4.24427029E-01
  4.76308962E-01 -1.38056407E+00  4.76308993E-01 -1.30117822E-02 -1.30098705E-02
 -9.52617955E-01 -1.78464281E-02 -2.64005693E-01 -1.78464144E-02  1.79785236E-01
  1.79785280E-01  3.56928425E-02  2.12213532E-01 -3.99413963E-02  2.12213520E-01
  3.52317901E-03  3.52382679E-03 -4.24427051E-01
Mulliken Charges                           R   N=           8
  4.10723516E-01 -3.47870208E-01 -4.45368640E-01  2.18525773E-01  1.95416206E-01
 -4.45368439E-01  2.18525631E-01  1.95416162E-01
