karrikinolide                                                           
Freq      RBLYP                                                       6-31G(d)            
Number of atoms                            I               17
Info1-9                                    I   N=           9
          24          24        1002           0           0         100
           6          18         202
Charge                                     I                0
Multiplicity                               I                1
Number of electrons                        I               78
Number of alpha electrons                  I               39
Number of beta electrons                   I               39
Number of basis functions                  I              177
Number of independent functions            I              177
Number of point charges in /Mol/           I                0
Number of translation vectors              I                0
Atomic numbers                             I   N=          17
           6           6           6           6           8           6
           6           8           6           6           1           1
           1           8           1           1           1
Nuclear charges                            R   N=          17
  6.00000000E+00  6.00000000E+00  6.00000000E+00  6.00000000E+00  8.00000000E+00
  6.00000000E+00  6.00000000E+00  8.00000000E+00  6.00000000E+00  6.00000000E+00
  1.00000000E+00  1.00000000E+00  1.00000000E+00  8.00000000E+00  1.00000000E+00
  1.00000000E+00  1.00000000E+00
Current cartesian coordinates              R   N=          51
 -3.79117123E+00  1.64197050E+00 -1.36711466E-01 -1.85642552E+00  3.59677248E+00
  4.12973792E-02  7.15170753E-01  2.71025450E+00  1.15217982E-01  1.15904672E+00
  1.68712146E-01  1.73262629E-02 -6.99222497E-01 -1.62773267E+00 -1.49881053E-01
 -3.20762882E+00 -8.59210616E-01 -2.27093049E-01 -3.06347168E+00  5.91249984E+00
  9.75791160E-02 -6.14768274E+00  2.66584202E+00 -1.93623838E-01 -5.78561611E+00
  5.45409174E+00 -4.59176577E-02 -1.99945447E+00  8.54464808E+00  2.67713997E-01
 -2.45975401E+00  9.66175666E+00 -1.43487594E+00  7.15119559E-02  8.51820390E+00
  4.79165736E-01 -2.80513204E+00  9.57707851E+00  1.89202134E+00 -7.61743590E+00
  6.83596373E+00 -5.98607157E-02 -4.51078750E+00 -2.44269826E+00 -3.59090534E-01
  3.02013961E+00 -7.12749005E-01  5.98170646E-02  2.31686745E+00  4.00418197E+00
  2.46181981E-01
Force Field                                I                0
Int Atom Types                             I   N=          17
           0           0           0           0           0           0
           0           0           0           0           0           0
           0           0           0           0           0
MM charges                                 R   N=          17
  0.00000000E+00  0.00000000E+00  0.00000000E+00  0.00000000E+00  0.00000000E+00
  0.00000000E+00  0.00000000E+00  0.00000000E+00  0.00000000E+00  0.00000000E+00
  0.00000000E+00  0.00000000E+00  0.00000000E+00  0.00000000E+00  0.00000000E+00
  0.00000000E+00  0.00000000E+00
Integer atomic weights                     I   N=          17
          12          12          12          12          16          12
          12          16          12          12           1           1
           1          16           1           1           1
Real atomic weights                        R   N=          17
  1.20000000E+01  1.20000000E+01  1.20000000E+01  1.20000000E+01  1.59949146E+01
  1.20000000E+01  1.20000000E+01  1.59949146E+01  1.20000000E+01  1.20000000E+01
  1.00782504E+00  1.00782504E+00  1.00782504E+00  1.59949146E+01  1.00782504E+00
  1.00782504E+00  1.00782504E+00
Atom fragment info                         I   N=          17
           0           0           0           0           0           0
           0           0           0           0           0           0
           0           0           0           0           0
Atom residue num                           I   N=          17
           0           0           0           0           0           0
           0           0           0           0           0           0
           0           0           0           0           0
Nuclear spins                              I   N=          17
           0           0           0           0           0           0
           0           0           0           0           1           1
           1           0           1           1           1
Nuclear ZEff                               R   N=          17
 -3.60000000E+00 -3.60000000E+00 -3.60000000E+00 -3.60000000E+00 -5.60000000E+00
 -3.60000000E+00 -3.60000000E+00 -5.60000000E+00 -3.60000000E+00 -3.60000000E+00
 -1.00000000E+00 -1.00000000E+00 -1.00000000E+00 -5.60000000E+00 -1.00000000E+00
 -1.00000000E+00 -1.00000000E+00
Nuclear ZNuc                               R   N=          17
  6.00000000E+00  6.00000000E+00  6.00000000E+00  6.00000000E+00  8.00000000E+00
  6.00000000E+00  6.00000000E+00  8.00000000E+00  6.00000000E+00  6.00000000E+00
  1.00000000E+00  1.00000000E+00  1.00000000E+00  8.00000000E+00  1.00000000E+00
  1.00000000E+00  1.00000000E+00
Nuclear QMom                               R   N=          17
  0.00000000E+00  0.00000000E+00  0.00000000E+00  0.00000000E+00  0.00000000E+00
  0.00000000E+00  0.00000000E+00  0.00000000E+00  0.00000000E+00  0.00000000E+00
  0.00000000E+00  0.00000000E+00  0.00000000E+00  0.00000000E+00  0.00000000E+00
  0.00000000E+00  0.00000000E+00
Nuclear GFac                               R   N=          17
  0.00000000E+00  0.00000000E+00  0.00000000E+00  0.00000000E+00  0.00000000E+00
  0.00000000E+00  0.00000000E+00  0.00000000E+00  0.00000000E+00  0.00000000E+00
  2.79284600E+00  2.79284600E+00  2.79284600E+00  0.00000000E+00  2.79284600E+00
  2.79284600E+00  2.79284600E+00
MicOpt                                     I   N=          17
          -1          -1          -1          -1          -1          -1
          -1          -1          -1          -1          -1          -1
          -1          -1          -1          -1          -1
Number of contracted shells                I               56
Number of primitive shells                 I              145
Pure/Cartesian d shells                    I                1
Pure/Cartesian f shells                    I                1
Highest angular momentum                   I                2
Largest degree of contraction              I                6
Shell types                                I   N=          56
           0          -1          -1           2           0          -1
          -1           2           0          -1          -1           2
           0          -1          -1           2           0          -1
          -1           2           0          -1          -1           2
           0          -1          -1           2           0          -1
          -1           2           0          -1          -1           2
           0          -1          -1           2           0           0
           0           0           0           0           0          -1
          -1           2           0           0           0           0
           0           0
Number of primitives per shell             I   N=          56
           6           3           1           1           6           3
           1           1           6           3           1           1
           6           3           1           1           6           3
           1           1           6           3           1           1
           6           3           1           1           6           3
           1           1           6           3           1           1
           6           3           1           1           3           1
           3           1           3           1           6           3
           1           1           3           1           3           1
           3           1
Shell to atom map                          I   N=          56
           1           1           1           1           2           2
           2           2           3           3           3           3
           4           4           4           4           5           5
           5           5           6           6           6           6
           7           7           7           7           8           8
           8           8           9           9           9           9
          10          10          10          10          11          11
          12          12          13          13          14          14
          14          14          15          15          16          16
          17          17
Primitive exponents                        R   N=         145
  3.04752488E+03  4.57369518E+02  1.03948685E+02  2.92101553E+01  9.28666296E+00
  3.16392696E+00  7.86827235E+00  1.88128854E+00  5.44249258E-01  1.68714478E-01
  8.00000000E-01  3.04752488E+03  4.57369518E+02  1.03948685E+02  2.92101553E+01
  9.28666296E+00  3.16392696E+00  7.86827235E+00  1.88128854E+00  5.44249258E-01
  1.68714478E-01  8.00000000E-01  3.04752488E+03  4.57369518E+02  1.03948685E+02
  2.92101553E+01  9.28666296E+00  3.16392696E+00  7.86827235E+00  1.88128854E+00
  5.44249258E-01  1.68714478E-01  8.00000000E-01  3.04752488E+03  4.57369518E+02
  1.03948685E+02  2.92101553E+01  9.28666296E+00  3.16392696E+00  7.86827235E+00
  1.88128854E+00  5.44249258E-01  1.68714478E-01  8.00000000E-01  5.48467166E+03
  8.25234946E+02  1.88046958E+02  5.29645000E+01  1.68975704E+01  5.79963534E+00
  1.55396162E+01  3.59993359E+00  1.01376175E+00  2.70005823E-01  8.00000000E-01
  3.04752488E+03  4.57369518E+02  1.03948685E+02  2.92101553E+01  9.28666296E+00
  3.16392696E+00  7.86827235E+00  1.88128854E+00  5.44249258E-01  1.68714478E-01
  8.00000000E-01  3.04752488E+03  4.57369518E+02  1.03948685E+02  2.92101553E+01
  9.28666296E+00  3.16392696E+00  7.86827235E+00  1.88128854E+00  5.44249258E-01
  1.68714478E-01  8.00000000E-01  5.48467166E+03  8.25234946E+02  1.88046958E+02
  5.29645000E+01  1.68975704E+01  5.79963534E+00  1.55396162E+01  3.59993359E+00
  1.01376175E+00  2.70005823E-01  8.00000000E-01  3.04752488E+03  4.57369518E+02
  1.03948685E+02  2.92101553E+01  9.28666296E+00  3.16392696E+00  7.86827235E+00
  1.88128854E+00  5.44249258E-01  1.68714478E-01  8.00000000E-01  3.04752488E+03
  4.57369518E+02  1.03948685E+02  2.92101553E+01  9.28666296E+00  3.16392696E+00
  7.86827235E+00  1.88128854E+00  5.44249258E-01  1.68714478E-01  8.00000000E-01
  1.87311370E+01  2.82539436E+00  6.40121692E-01  1.61277759E-01  1.87311370E+01
  2.82539436E+00  6.40121692E-01  1.61277759E-01  1.87311370E+01  2.82539436E+00
  6.40121692E-01  1.61277759E-01  5.48467166E+03  8.25234946E+02  1.88046958E+02
  5.29645000E+01  1.68975704E+01  5.79963534E+00  1.55396162E+01  3.59993359E+00
  1.01376175E+00  2.70005823E-01  8.00000000E-01  1.87311370E+01  2.82539436E+00
  6.40121692E-01  1.61277759E-01  1.87311370E+01  2.82539436E+00  6.40121692E-01
  1.61277759E-01  1.87311370E+01  2.82539436E+00  6.40121692E-01  1.61277759E-01
Contraction coefficients                   R   N=         145
  1.83473713E-03  1.40373228E-02  6.88426223E-02  2.32184443E-01  4.67941348E-01
  3.62311985E-01 -1.19332420E-01 -1.60854152E-01  1.14345644E+00  1.00000000E+00
  1.00000000E+00  1.83473713E-03  1.40373228E-02  6.88426223E-02  2.32184443E-01
  4.67941348E-01  3.62311985E-01 -1.19332420E-01 -1.60854152E-01  1.14345644E+00
  1.00000000E+00  1.00000000E+00  1.83473713E-03  1.40373228E-02  6.88426223E-02
  2.32184443E-01  4.67941348E-01  3.62311985E-01 -1.19332420E-01 -1.60854152E-01
  1.14345644E+00  1.00000000E+00  1.00000000E+00  1.83473713E-03  1.40373228E-02
  6.88426223E-02  2.32184443E-01  4.67941348E-01  3.62311985E-01 -1.19332420E-01
 -1.60854152E-01  1.14345644E+00  1.00000000E+00  1.00000000E+00  1.83107443E-03
  1.39501722E-02  6.84450781E-02  2.32714336E-01  4.70192898E-01  3.58520853E-01
 -1.10777550E-01 -1.48026263E-01  1.13076702E+00  1.00000000E+00  1.00000000E+00
  1.83473713E-03  1.40373228E-02  6.88426223E-02  2.32184443E-01  4.67941348E-01
  3.62311985E-01 -1.19332420E-01 -1.60854152E-01  1.14345644E+00  1.00000000E+00
  1.00000000E+00  1.83473713E-03  1.40373228E-02  6.88426223E-02  2.32184443E-01
  4.67941348E-01  3.62311985E-01 -1.19332420E-01 -1.60854152E-01  1.14345644E+00
  1.00000000E+00  1.00000000E+00  1.83107443E-03  1.39501722E-02  6.84450781E-02
  2.32714336E-01  4.70192898E-01  3.58520853E-01 -1.10777550E-01 -1.48026263E-01
  1.13076702E+00  1.00000000E+00  1.00000000E+00  1.83473713E-03  1.40373228E-02
  6.88426223E-02  2.32184443E-01  4.67941348E-01  3.62311985E-01 -1.19332420E-01
 -1.60854152E-01  1.14345644E+00  1.00000000E+00  1.00000000E+00  1.83473713E-03
  1.40373228E-02  6.88426223E-02  2.32184443E-01  4.67941348E-01  3.62311985E-01
 -1.19332420E-01 -1.60854152E-01  1.14345644E+00  1.00000000E+00  1.00000000E+00
  3.34946043E-02  2.34726953E-01  8.13757326E-01  1.00000000E+00  3.34946043E-02
  2.34726953E-01  8.13757326E-01  1.00000000E+00  3.34946043E-02  2.34726953E-01
  8.13757326E-01  1.00000000E+00  1.83107443E-03  1.39501722E-02  6.84450781E-02
  2.32714336E-01  4.70192898E-01  3.58520853E-01 -1.10777550E-01 -1.48026263E-01
  1.13076702E+00  1.00000000E+00  1.00000000E+00  3.34946043E-02  2.34726953E-01
  8.13757326E-01  1.00000000E+00  3.34946043E-02  2.34726953E-01  8.13757326E-01
  1.00000000E+00  3.34946043E-02  2.34726953E-01  8.13757326E-01  1.00000000E+00
P(S=P) Contraction coefficients            R   N=         145
  0.00000000E+00  0.00000000E+00  0.00000000E+00  0.00000000E+00  0.00000000E+00
  0.00000000E+00  6.89990666E-02  3.16423961E-01  7.44308291E-01  1.00000000E+00
  0.00000000E+00  0.00000000E+00  0.00000000E+00  0.00000000E+00  0.00000000E+00
  0.00000000E+00  0.00000000E+00  6.89990666E-02  3.16423961E-01  7.44308291E-01
  1.00000000E+00  0.00000000E+00  0.00000000E+00  0.00000000E+00  0.00000000E+00
  0.00000000E+00  0.00000000E+00  0.00000000E+00  6.89990666E-02  3.16423961E-01
  7.44308291E-01  1.00000000E+00  0.00000000E+00  0.00000000E+00  0.00000000E+00
  0.00000000E+00  0.00000000E+00  0.00000000E+00  0.00000000E+00  6.89990666E-02
  3.16423961E-01  7.44308291E-01  1.00000000E+00  0.00000000E+00  0.00000000E+00
  0.00000000E+00  0.00000000E+00  0.00000000E+00  0.00000000E+00  0.00000000E+00
  7.08742682E-02  3.39752839E-01  7.27158577E-01  1.00000000E+00  0.00000000E+00
  0.00000000E+00  0.00000000E+00  0.00000000E+00  0.00000000E+00  0.00000000E+00
  0.00000000E+00  6.89990666E-02  3.16423961E-01  7.44308291E-01  1.00000000E+00
  0.00000000E+00  0.00000000E+00  0.00000000E+00  0.00000000E+00  0.00000000E+00
  0.00000000E+00  0.00000000E+00  6.89990666E-02  3.16423961E-01  7.44308291E-01
  1.00000000E+00  0.00000000E+00  0.00000000E+00  0.00000000E+00  0.00000000E+00
  0.00000000E+00  0.00000000E+00  0.00000000E+00  7.08742682E-02  3.39752839E-01
  7.27158577E-01  1.00000000E+00  0.00000000E+00  0.00000000E+00  0.00000000E+00
  0.00000000E+00  0.00000000E+00  0.00000000E+00  0.00000000E+00  6.89990666E-02
  3.16423961E-01  7.44308291E-01  1.00000000E+00  0.00000000E+00  0.00000000E+00
  0.00000000E+00  0.00000000E+00  0.00000000E+00  0.00000000E+00  0.00000000E+00
  6.89990666E-02  3.16423961E-01  7.44308291E-01  1.00000000E+00  0.00000000E+00
  0.00000000E+00  0.00000000E+00  0.00000000E+00  0.00000000E+00  0.00000000E+00
  0.00000000E+00  0.00000000E+00  0.00000000E+00  0.00000000E+00  0.00000000E+00
  0.00000000E+00  0.00000000E+00  0.00000000E+00  0.00000000E+00  0.00000000E+00
  0.00000000E+00  0.00000000E+00  0.00000000E+00  7.08742682E-02  3.39752839E-01
  7.27158577E-01  1.00000000E+00  0.00000000E+00  0.00000000E+00  0.00000000E+00
  0.00000000E+00  0.00000000E+00  0.00000000E+00  0.00000000E+00  0.00000000E+00
  0.00000000E+00  0.00000000E+00  0.00000000E+00  0.00000000E+00  0.00000000E+00
Coordinates of each shell                  R   N=         168
 -3.79117123E+00  1.64197050E+00 -1.36711466E-01 -3.79117123E+00  1.64197050E+00
 -1.36711466E-01 -3.79117123E+00  1.64197050E+00 -1.36711466E-01 -3.79117123E+00
  1.64197050E+00 -1.36711466E-01 -1.85642552E+00  3.59677248E+00  4.12973792E-02
 -1.85642552E+00  3.59677248E+00  4.12973792E-02 -1.85642552E+00  3.59677248E+00
  4.12973792E-02 -1.85642552E+00  3.59677248E+00  4.12973792E-02  7.15170753E-01
  2.71025450E+00  1.15217982E-01  7.15170753E-01  2.71025450E+00  1.15217982E-01
  7.15170753E-01  2.71025450E+00  1.15217982E-01  7.15170753E-01  2.71025450E+00
  1.15217982E-01  1.15904672E+00  1.68712146E-01  1.73262629E-02  1.15904672E+00
  1.68712146E-01  1.73262629E-02  1.15904672E+00  1.68712146E-01  1.73262629E-02
  1.15904672E+00  1.68712146E-01  1.73262629E-02 -6.99222497E-01 -1.62773267E+00
 -1.49881053E-01 -6.99222497E-01 -1.62773267E+00 -1.49881053E-01 -6.99222497E-01
 -1.62773267E+00 -1.49881053E-01 -6.99222497E-01 -1.62773267E+00 -1.49881053E-01
 -3.20762882E+00 -8.59210616E-01 -2.27093049E-01 -3.20762882E+00 -8.59210616E-01
 -2.27093049E-01 -3.20762882E+00 -8.59210616E-01 -2.27093049E-01 -3.20762882E+00
 -8.59210616E-01 -2.27093049E-01 -3.06347168E+00  5.91249984E+00  9.75791160E-02
 -3.06347168E+00  5.91249984E+00  9.75791160E-02 -3.06347168E+00  5.91249984E+00
  9.75791160E-02 -3.06347168E+00  5.91249984E+00  9.75791160E-02 -6.14768274E+00
  2.66584202E+00 -1.93623838E-01 -6.14768274E+00  2.66584202E+00 -1.93623838E-01
 -6.14768274E+00  2.66584202E+00 -1.93623838E-01 -6.14768274E+00  2.66584202E+00
 -1.93623838E-01 -5.78561611E+00  5.45409174E+00 -4.59176577E-02 -5.78561611E+00
  5.45409174E+00 -4.59176577E-02 -5.78561611E+00  5.45409174E+00 -4.59176577E-02
 -5.78561611E+00  5.45409174E+00 -4.59176577E-02 -1.99945447E+00  8.54464808E+00
  2.67713997E-01 -1.99945447E+00  8.54464808E+00  2.67713997E-01 -1.99945447E+00
  8.54464808E+00  2.67713997E-01 -1.99945447E+00  8.54464808E+00  2.67713997E-01
 -2.45975401E+00  9.66175666E+00 -1.43487594E+00 -2.45975401E+00  9.66175666E+00
 -1.43487594E+00  7.15119559E-02  8.51820390E+00  4.79165736E-01  7.15119559E-02
  8.51820390E+00  4.79165736E-01 -2.80513204E+00  9.57707851E+00  1.89202134E+00
 -2.80513204E+00  9.57707851E+00  1.89202134E+00 -7.61743590E+00  6.83596373E+00
 -5.98607157E-02 -7.61743590E+00  6.83596373E+00 -5.98607157E-02 -7.61743590E+00
  6.83596373E+00 -5.98607157E-02 -7.61743590E+00  6.83596373E+00 -5.98607157E-02
 -4.51078750E+00 -2.44269826E+00 -3.59090534E-01 -4.51078750E+00 -2.44269826E+00
 -3.59090534E-01  3.02013961E+00 -7.12749005E-01  5.98170646E-02  3.02013961E+00
 -7.12749005E-01  5.98170646E-02  2.31686745E+00  4.00418197E+00  2.46181981E-01
  2.31686745E+00  4.00418197E+00  2.46181981E-01
Constraint Structure                       R   N=          51
 -3.79117123E+00  1.64197050E+00 -1.36711466E-01 -1.85642552E+00  3.59677248E+00
  4.12973792E-02  7.15170753E-01  2.71025450E+00  1.15217982E-01  1.15904672E+00
  1.68712146E-01  1.73262629E-02 -6.99222497E-01 -1.62773267E+00 -1.49881053E-01
 -3.20762882E+00 -8.59210616E-01 -2.27093049E-01 -3.06347168E+00  5.91249984E+00
  9.75791160E-02 -6.14768274E+00  2.66584202E+00 -1.93623838E-01 -5.78561611E+00
  5.45409174E+00 -4.59176577E-02 -1.99945447E+00  8.54464808E+00  2.67713997E-01
 -2.45975401E+00  9.66175666E+00 -1.43487594E+00  7.15119559E-02  8.51820390E+00
  4.79165736E-01 -2.80513204E+00  9.57707851E+00  1.89202134E+00 -7.61743590E+00
  6.83596373E+00 -5.98607157E-02 -4.51078750E+00 -2.44269826E+00 -3.59090534E-01
  3.02013961E+00 -7.12749005E-01  5.98170646E-02  2.31686745E+00  4.00418197E+00
  2.46181981E-01
Num ILSW                                   I              100
ILSW                                       I   N=         100
           0           1           0           0           2           0
           0           0           0           0         402          -1
           0           0           0           1           2           0
           0           0           1           0           1           0
           1           1           0           0           0           0
           0           0      100000           0          -1           0
           0           0           0           0           0           0
           0           0           0           1           0           0
           0           0           1           0           0           0
           0           0           4          41           0           0
           0           0           0           0           0           0
           0           0           0           0           0           0
           0           0           0           0           0           0
           0           0           0           0           0           0
           0           0           0           0           0           0
           0           0           0           0           0           0
           0           0           0           0
Num RLSW                                   I               41
RLSW                                       R   N=          41
  1.00000000E+00  1.00000000E+00  1.00000000E+00  1.00000000E+00  0.00000000E+00
  0.00000000E+00  0.00000000E+00  1.00000000E+00  0.00000000E+00  0.00000000E+00
  0.00000000E+00  0.00000000E+00  1.00000000E+00  0.00000000E+00  0.00000000E+00
  0.00000000E+00  0.00000000E+00  1.00000000E+00  0.00000000E+00  0.00000000E+00
  0.00000000E+00  0.00000000E+00  1.00000000E+00  0.00000000E+00  0.00000000E+00
  0.00000000E+00  0.00000000E+00  1.00000000E+00  0.00000000E+00  0.00000000E+00
  0.00000000E+00  0.00000000E+00  1.00000000E+00  0.00000000E+00  0.00000000E+00
  0.00000000E+00  0.00000000E+00  0.00000000E+00  1.00000000E+00  1.00000000E+00
  0.00000000E+00
MxBond                                     I                4
NBond                                      I   N=          17
           3           3           3           3           2           3
           3           2           3           4           1           1
           1           1           1           1           1
IBond                                      I   N=          68
           2           6           8           0           1           3
           7           0           2           4          17           0
           3           5          16           0           4           6
           0           0           1           5          15           0
           2           9          10           0           1           9
           0           0           7           8          14           0
           7          11          12          13          10           0
           0           0          10           0           0           0
          10           0           0           0           9           0
           0           0           6           0           0           0
           4           0           0           0           3           0
           0           0
RBond                                      R   N=          68
  1.00000000E+00  1.50000000E+00  3.00000000E+00  0.00000000E+00  1.00000000E+00
  1.50000000E+00  1.50000000E+00  0.00000000E+00  1.50000000E+00  1.50000000E+00
  1.00000000E+00  0.00000000E+00  1.50000000E+00  3.00000000E+00  1.00000000E+00
  0.00000000E+00  3.00000000E+00  3.00000000E+00  0.00000000E+00  0.00000000E+00
  1.50000000E+00  3.00000000E+00  1.00000000E+00  0.00000000E+00  1.50000000E+00
  1.50000000E+00  1.00000000E+00  0.00000000E+00  3.00000000E+00  2.00000000E+00
  0.00000000E+00  0.00000000E+00  1.50000000E+00  2.00000000E+00  3.00000000E+00
  0.00000000E+00  1.00000000E+00  1.00000000E+00  1.00000000E+00  1.00000000E+00
  1.00000000E+00  0.00000000E+00  0.00000000E+00  0.00000000E+00  1.00000000E+00
  0.00000000E+00  0.00000000E+00  0.00000000E+00  1.00000000E+00  0.00000000E+00
  0.00000000E+00  0.00000000E+00  3.00000000E+00  0.00000000E+00  0.00000000E+00
  0.00000000E+00  1.00000000E+00  0.00000000E+00  0.00000000E+00  0.00000000E+00
  1.00000000E+00  0.00000000E+00  0.00000000E+00  0.00000000E+00  1.00000000E+00
  0.00000000E+00  0.00000000E+00  0.00000000E+00
Virial Ratio                               R      2.009416067195480E+00
SCF Energy                                 R     -5.339545139188675E+02
Total Energy                               R     -5.339545139188675E+02
RMS Force                                  R      2.241063018247096E-06
RMS Density                                R      4.842749611413316E-09
External E-field                           R   N=          35
  0.00000000E+00  0.00000000E+00  0.00000000E+00  0.00000000E+00  0.00000000E+00
  0.00000000E+00  0.00000000E+00  0.00000000E+00  0.00000000E+00  0.00000000E+00
  0.00000000E+00  0.00000000E+00  0.00000000E+00  0.00000000E+00  0.00000000E+00
  0.00000000E+00  0.00000000E+00  0.00000000E+00  0.00000000E+00  0.00000000E+00
  0.00000000E+00  0.00000000E+00  0.00000000E+00  0.00000000E+00  0.00000000E+00
  0.00000000E+00  0.00000000E+00  0.00000000E+00  0.00000000E+00  0.00000000E+00
  0.00000000E+00  0.00000000E+00  0.00000000E+00  0.00000000E+00  0.00000000E+00
IOpCl                                      I                0
IROHF                                      I                0
Alpha Orbital Energies                     R   N=         177
 -1.88903209E+01 -1.88430130E+01 -1.87795268E+01 -1.00319424E+01 -1.00156827E+01
 -1.00048182E+01 -1.00009345E+01 -9.96138990E+00 -9.95972015E+00 -9.94083381E+00
 -9.93214836E+00 -1.01835113E+00 -9.86704842E-01 -9.19380693E-01 -7.61267911E-01
 -7.17782956E-01 -7.01161382E-01 -6.29328883E-01 -5.99265500E-01 -5.57549588E-01
 -5.15145552E-01 -4.77838283E-01 -4.68994770E-01 -4.33326901E-01 -4.23374132E-01
 -4.15678403E-01 -3.94827235E-01 -3.85906190E-01 -3.63682944E-01 -3.55686375E-01
 -3.44468281E-01 -3.36535058E-01 -3.27408929E-01 -3.04896004E-01 -3.03653251E-01
 -2.84278592E-01 -2.26649056E-01 -2.17087450E-01 -1.79096816E-01 -7.62366013E-02
 -4.20813284E-02  3.21823822E-02  5.25958694E-02  6.57359935E-02  8.37182544E-02
  9.11248859E-02  9.22362047E-02  1.08795838E-01  1.19687518E-01  1.43875902E-01
  1.59424128E-01  1.77022240E-01  1.89728278E-01  2.16758393E-01  2.54611235E-01
  2.71091488E-01  3.07495162E-01  3.34765958E-01  3.53930305E-01  3.96595085E-01
  4.14514336E-01  4.36943578E-01  4.40064415E-01  4.73854909E-01  4.90031013E-01
  4.91883494E-01  5.08919511E-01  5.09193154E-01  5.25023119E-01  5.26853339E-01
  5.38071352E-01  5.60948076E-01  5.72893387E-01  5.78586835E-01  6.04942124E-01
  6.33532511E-01  6.61653084E-01  6.80864013E-01  6.96438926E-01  7.17084518E-01
  7.41812616E-01  7.64114049E-01  7.68385968E-01  8.00860129E-01  8.17042871E-01
  8.33063801E-01  8.46923013E-01  8.57248986E-01  8.95863526E-01  9.05773915E-01
  9.14903048E-01  9.21984886E-01  9.46139175E-01  9.69583638E-01  9.90539100E-01
  9.94616467E-01  1.01529894E+00  1.03976580E+00  1.06684917E+00  1.07186536E+00
  1.11919993E+00  1.16543906E+00  1.22139378E+00  1.25309999E+00  1.26568422E+00
  1.28059912E+00  1.29618836E+00  1.34309894E+00  1.35363696E+00  1.36222051E+00
  1.39890633E+00  1.42041162E+00  1.42546017E+00  1.43389888E+00  1.43945093E+00
  1.50218880E+00  1.57462692E+00  1.63035120E+00  1.65320711E+00  1.68558216E+00
  1.70034923E+00  1.71417484E+00  1.73779591E+00  1.74531120E+00  1.76541771E+00
  1.77987313E+00  1.79173696E+00  1.82462153E+00  1.86555193E+00  1.86981866E+00
  1.88067788E+00  1.92126543E+00  1.95092285E+00  1.96465748E+00  1.97024896E+00
  2.00693742E+00  2.05786774E+00  2.09333400E+00  2.12905817E+00  2.14682213E+00
  2.14813354E+00  2.18542545E+00  2.23039989E+00  2.23376567E+00  2.29695736E+00
  2.31131357E+00  2.33514581E+00  2.33804311E+00  2.41164942E+00  2.47215839E+00
  2.48031248E+00  2.49385384E+00  2.55870554E+00  2.58377177E+00  2.59417771E+00
  2.61798639E+00  2.65229242E+00  2.66857593E+00  2.73639860E+00  2.81788464E+00
  2.84741292E+00  2.89880995E+00  3.02182781E+00  3.05171863E+00  3.13497307E+00
  3.31465629E+00  3.91399260E+00  3.95184411E+00  3.98139484E+00  4.02545430E+00
  4.07342753E+00  4.15880843E+00  4.19231559E+00  4.30289865E+00  4.46782320E+00
  4.50596740E+00  4.69921447E+00
Alpha MO coefficients                      R   N=       31329
 -2.09904302E-05  3.32783689E-05 -2.20259624E-05 -2.51199274E-05 -2.16784560E-06
  1.50985504E-04  1.35328716E-03  9.49263304E-04  1.04665031E-04 -1.06059544E-04
 -1.49983214E-04 -2.89376823E-05  7.35978688E-05 -6.05583752E-07 -3.23426027E-06
  2.30947092E-05  1.11171947E-04  2.56200293E-05 -6.52914844E-06  6.83557525E-07
 -2.18477771E-03 -5.08721302E-04  1.11458501E-03  3.04900341E-05 -1.78681742E-05
  2.97575759E-05  5.14220682E-05 -7.76756044E-06 -4.02447386E-06 -1.44056421E-06
 -1.55305862E-05  1.06553666E-05  2.66275525E-05  3.45279703E-05  2.72451106E-06
  6.68537843E-04 -1.52848532E-03  9.34833068E-05 -6.42741437E-05 -1.71165202E-05
 -1.31668904E-04 -1.94933171E-05 -1.22046942E-05 -3.90741108E-07 -6.54567910E-06
  1.61907880E-07  2.36278123E-04 -3.21005888E-04 -3.60817745E-04 -3.11932223E-05
 -1.74123510E-03  1.42606534E-03  1.51371902E-03  1.34419095E-04  4.51643635E-05
  2.27592647E-04 -9.42008806E-06  1.50954848E-04  9.92391038E-06  1.95586974E-05
  9.92370242E-01  2.66426141E-02 -2.07225643E-04  8.94333909E-04  3.22328726E-05
  1.48576659E-02 -2.19967055E-05  3.54689279E-04  1.55207554E-05 -9.04738820E-03
 -8.97927522E-03 -8.88178710E-03 -3.65596100E-06 -8.80856636E-06 -5.43552544E-06
 -8.02359235E-06  1.44342497E-04  4.27988451E-04 -1.53097152E-04  1.21715480E-05
 -1.20141720E-03 -1.85705944E-03  8.96897287E-04 -4.17641320E-05  2.46432472E-04
  1.17525838E-04 -1.56800228E-05 -2.00135153E-04  4.30140194E-06 -1.81447027E-06
 -6.31958580E-07  1.28382884E-06  2.06746872E-06 -5.68236595E-06 -5.37320736E-08
 -3.47635067E-05 -2.37361713E-04  2.57174372E-04 -2.88685805E-07  2.93319482E-06
 -1.45367359E-05  4.13123248E-06  3.88513854E-06  9.25712484E-08 -1.08073281E-06