CrystalExplorer Job                                                     
SP        UHF                                                         3-21G               
Number of atoms                            I                6
Info1-9                                    I   N=           9
          12          12           0           0           0         110
           1           1           2
Full Title                                 C   N=           2
CrystalExplorer Job     
Route                                      C   N=           3
#P UHF/3-21G 6d 10f NoSymm FChk     
Charge                                     I                0
Multiplicity                               I                1
Number of electrons                        I               24
Number of alpha electrons                  I               12
Number of beta electrons                   I               12
Number of basis functions                  I               33
Number of independent functions            I               33
Number of point charges in /Mol/           I                0
Number of translation vectors              I                0
Atomic numbers                             I   N=           6
           8           6           7           1           1           1
Nuclear charges                            R   N=           6
  8.00000000E+00  6.00000000E+00  7.00000000E+00  1.00000000E+00  1.00000000E+00
  1.00000000E+00
Current cartesian coordinates              R   N=          18
  2.61446067E+00 -1.17374103E+00  3.23066446E+00  1.66558194E+00  9.65302344E-01
  3.35282014E+00  1.75382837E+00  2.67551394E+00  1.54645549E+00  7.37722626E-01
  1.52056624E+00  4.91227316E+00  1.09983195E+00  4.16874341E+00  1.81936029E+00
  2.48502955E+00  2.30647689E+00  7.79719900E-02
Number of symbols in /Mol/                 I                0
Force Field                                I                0
Atom Types                                 C   N=           6
                                                            
            
Int Atom Types                             I   N=           6
           0           0           0           0           0           0
MM charges                                 R   N=           6
  0.00000000E+00  0.00000000E+00  0.00000000E+00  0.00000000E+00  0.00000000E+00
  0.00000000E+00
Integer atomic weights                     I   N=           6
          16          12          14           1           1           1
Real atomic weights                        R   N=           6
  1.59949146E+01  1.20000000E+01  1.40030740E+01  1.00782504E+00  1.00782504E+00
  1.00782504E+00
Atom fragment info                         I   N=           6
           0           0           0           0           0           0
Atom residue num                           I   N=           6
           0           0           0           0           0           0
Nuclear spins                              I   N=           6
           0           0           2           1           1           1
Nuclear ZEff                               R   N=           6
 -5.60000000E+00 -3.60000000E+00 -4.55000000E+00 -1.00000000E+00 -1.00000000E+00
 -1.00000000E+00
Nuclear ZNuc                               R   N=           6
  8.00000000E+00  6.00000000E+00  7.00000000E+00  1.00000000E+00  1.00000000E+00
  1.00000000E+00
Nuclear QMom                               R   N=           6
  0.00000000E+00  0.00000000E+00  2.04400000E+00  0.00000000E+00  0.00000000E+00
  0.00000000E+00
Nuclear GFac                               R   N=           6
  0.00000000E+00  0.00000000E+00  4.03761000E-01  2.79284600E+00  2.79284600E+00
  2.79284600E+00
MicOpt                                     I   N=           6
          -1          -1          -1          -1          -1          -1
Number of residues                         I                0
Number of secondary structures             I                0
Number of contracted shells                I               15
Number of primitive shells                 I               27
Pure/Cartesian d shells                    I                1
Pure/Cartesian f shells                    I                1
Highest angular momentum                   I                1
Largest degree of contraction              I                3
Shell types                                I   N=          15
           0          -1          -1           0          -1          -1
           0          -1          -1           0           0           0
           0           0           0
Number of primitives per shell             I   N=          15
           3           2           1           3           2           1
           3           2           1           2           1           2
           1           2           1
Shell to atom map                          I   N=          15
           1           1           1           2           2           2
           3           3           3           4           4           5
           5           6           6
Primitive exponents                        R   N=          27
  3.22037000E+02  4.84308000E+01  1.04206000E+01  7.40294000E+00  1.57620000E+00
  3.73684000E-01  1.72256000E+02  2.59109000E+01  5.53335000E+00  3.66498000E+00
  7.70545000E-01  1.95857000E-01  2.42766000E+02  3.64851000E+01  7.81449000E+00
  5.42522000E+00  1.14915000E+00  2.83205000E-01  5.44717800E+00  8.24547240E-01
  1.83191580E-01  5.44717800E+00  8.24547240E-01  1.83191580E-01  5.44717800E+00
  8.24547240E-01  1.83191580E-01
Contraction coefficients                   R   N=          27
  5.92393934E-02  3.51499961E-01  7.07657921E-01 -4.04453583E-01  1.22156176E+00
  1.00000000E+00  6.17669074E-02  3.58794043E-01  7.00713084E-01 -3.95895162E-01
  1.21583436E+00  1.00000000E+00  5.98657005E-02  3.52955003E-01  7.06513006E-01
 -4.13300077E-01  1.22441727E+00  1.00000000E+00  1.56284979E-01  9.04690877E-01
  1.00000000E+00  1.56284979E-01  9.04690877E-01  1.00000000E+00  1.56284979E-01
  9.04690877E-01  1.00000000E+00
P(S=P) Contraction coefficients            R   N=          27
  0.00000000E+00  0.00000000E+00  0.00000000E+00  2.44586107E-01  8.53955373E-01
  1.00000000E+00  0.00000000E+00  0.00000000E+00  0.00000000E+00  2.36459947E-01
  8.60618806E-01  1.00000000E+00  0.00000000E+00  0.00000000E+00  0.00000000E+00
  2.37972016E-01  8.58953059E-01  1.00000000E+00  0.00000000E+00  0.00000000E+00
  0.00000000E+00  0.00000000E+00  0.00000000E+00  0.00000000E+00  0.00000000E+00
  0.00000000E+00  0.00000000E+00
Coordinates of each shell                  R   N=          45
  2.61446067E+00 -1.17374103E+00  3.23066446E+00  2.61446067E+00 -1.17374103E+00
  3.23066446E+00  2.61446067E+00 -1.17374103E+00  3.23066446E+00  1.66558194E+00
  9.65302344E-01  3.35282014E+00  1.66558194E+00  9.65302344E-01  3.35282014E+00
  1.66558194E+00  9.65302344E-01  3.35282014E+00  1.75382837E+00  2.67551394E+00
  1.54645549E+00  1.75382837E+00  2.67551394E+00  1.54645549E+00  1.75382837E+00
  2.67551394E+00  1.54645549E+00  7.37722626E-01  1.52056624E+00  4.91227316E+00
  7.37722626E-01  1.52056624E+00  4.91227316E+00  1.09983195E+00  4.16874341E+00
  1.81936029E+00  1.09983195E+00  4.16874341E+00  1.81936029E+00  2.48502955E+00
  2.30647689E+00  7.79719900E-02  2.48502955E+00  2.30647689E+00  7.79719900E-02
Constraint Structure                       R   N=          18
  2.61446067E+00 -1.17374103E+00  3.23066446E+00  1.66558194E+00  9.65302344E-01
  3.35282014E+00  1.75382837E+00  2.67551394E+00  1.54645549E+00  7.37722626E-01
  1.52056624E+00  4.91227316E+00  1.09983195E+00  4.16874341E+00  1.81936029E+00
  2.48502955E+00  2.30647689E+00  7.79719900E-02
Num ILSW                                   I              100
ILSW                                       I   N=         100
           1           1           0           0           2           0
           0           0           3           0           0          -1
           0           0           0           1           0           0
           0           0           0           0           0           0
           1           1           0           0           0           0
           0           0      100000           0          -1           0
           0           0           0           0           0           0
           0           0           0           1           0           0
           0           0           1           0           0           0
           0           0           4          41           0           0
           0           0           0           0           0           0
           0           0           0           6           0           0
           0           0           0           0           0           0
           0           0           0           0           0           0
           0           0           0           0           0           0
           0           0           0           0           0           0
           0           0           0           0
Num RLSW                                   I               41
RLSW                                       R   N=          41
  1.00000000E+00  1.00000000E+00  1.00000000E+00  1.00000000E+00  1.00000000E+00
  0.00000000E+00  0.00000000E+00  1.00000000E+00  0.00000000E+00  0.00000000E+00
  0.00000000E+00  0.00000000E+00  1.00000000E+00  0.00000000E+00  0.00000000E+00
  0.00000000E+00  0.00000000E+00  1.00000000E+00  0.00000000E+00  0.00000000E+00
  0.00000000E+00  0.00000000E+00  1.00000000E+00  0.00000000E+00  0.00000000E+00
  0.00000000E+00  0.00000000E+00  1.00000000E+00  0.00000000E+00  0.00000000E+00
  0.00000000E+00  0.00000000E+00  1.00000000E+00  0.00000000E+00  0.00000000E+00
  0.00000000E+00  0.00000000E+00  0.00000000E+00  1.00000000E+00  1.00000000E+00
  0.00000000E+00
MxBond                                     I                3
NBond                                      I   N=           6
           1           3           3           1           1           1
IBond                                      I   N=          18
           2           0           0           1           3           4
           2           5           6           2           0           0
           3           0           0           3           0           0
RBond                                      R   N=          18
  2.00000000E+00  0.00000000E+00  0.00000000E+00  2.00000000E+00  1.41000000E+00
  1.00000000E+00  1.41000000E+00  2.00000000E+00  1.00000000E+00  1.00000000E+00
  0.00000000E+00  0.00000000E+00  2.00000000E+00  0.00000000E+00  0.00000000E+00
  1.00000000E+00  0.00000000E+00  0.00000000E+00
Virial Ratio                               R      1.998299033001934E+00
SCF Energy                                 R     -1.679459718730939E+02
Total Energy                               R     -1.679459718730939E+02
S**2                                       R     -2.131628207280301E-14
S**2 after annihilation                    R      8.704148513061242E-14
RMS Density                                R      5.111532281315469E-09
External E-field                           R   N=          35
  0.00000000E+00  0.00000000E+00  0.00000000E+00  0.00000000E+00  0.00000000E+00
  0.00000000E+00  0.00000000E+00  0.00000000E+00  0.00000000E+00  0.00000000E+00
  0.00000000E+00  0.00000000E+00  0.00000000E+00  0.00000000E+00  0.00000000E+00
  0.00000000E+00  0.00000000E+00  0.00000000E+00  0.00000000E+00  0.00000000E+00
  0.00000000E+00  0.00000000E+00  0.00000000E+00  0.00000000E+00  0.00000000E+00
  0.00000000E+00  0.00000000E+00  0.00000000E+00  0.00000000E+00  0.00000000E+00
  0.00000000E+00  0.00000000E+00  0.00000000E+00  0.00000000E+00  0.00000000E+00
IOpCl                                      I                1
IROHF                                      I                0
Alpha Orbital Energies                     R   N=          33
 -2.04123246E+01 -1.54890828E+01 -1.12862396E+01 -1.37601954E+00 -1.25723482E+00
 -8.88140046E-01 -8.02999083E-01 -7.02276678E-01 -5.81291124E-01 -5.69712245E-01
 -4.17288385E-01 -4.00046728E-01  2.10724202E-01  2.89657891E-01  3.18999132E-01
  3.83647091E-01  5.11461346E-01  6.09116524E-01  9.56027317E-01  9.95636369E-01
  1.04989968E+00  1.16962245E+00  1.21357381E+00  1.39189206E+00  1.57108322E+00
  1.60446082E+00  1.63940242E+00  1.80375087E+00  1.92931786E+00  2.00667015E+00
  2.05722013E+00  2.74162535E+00  3.55507233E+00
Beta Orbital Energies                      R   N=          33
 -2.04123246E+01 -1.54890828E+01 -1.12862396E+01 -1.37601954E+00 -1.25723482E+00
 -8.88140046E-01 -8.02999083E-01 -7.02276678E-01 -5.81291124E-01 -5.69712245E-01
 -4.17288385E-01 -4.00046728E-01  2.10724202E-01  2.89657891E-01  3.18999132E-01
  3.83647091E-01  5.11461346E-01  6.09116524E-01  9.56027317E-01  9.95636369E-01
  1.04989968E+00  1.16962245E+00  1.21357381E+00  1.39189206E+00  1.57108322E+00
  1.60446082E+00  1.63940242E+00  1.80375087E+00  1.92931786E+00  2.00667015E+00
  2.05722013E+00  2.74162535E+00  3.55507233E+00
Alpha MO coefficients                      R   N=        1089
  9.83676996E-01  9.92161341E-02 -1.78254866E-03  4.23206033E-03 -1.01917017E-06
 -5.29456473E-02  5.59305035E-03 -1.38345392E-02  4.95487381E-04  5.97968866E-05
  8.53879234E-04  7.43903167E-04 -2.14445910E-03  3.33564626E-04  1.74567416E-02
  1.10078066E-02 -1.84806027E-02 -7.52746812E-03  1.36978216E-04  6.87762692E-04
  4.66461714E-04 -4.06574664E-04 -6.91094046E-04 -2.39510694E-03 -4.97691539E-03
  7.06721643E-03  5.09369549E-03  3.74585309E-04  5.79322082E-03 -2.45948797E-03
 -8.33175448E-04  2.76409518E-03  1.46341141E-03  7.52331240E-05  5.08941789E-04
  1.81173399E-04  4.07486618E-05 -4.62115797E-04 -2.22306192E-03 -5.03983430E-04
 -1.93365461E-03  2.99616116E-03 -6.74648360E-05 -9.22122346E-04  4.84453042E-05
  4.43704593E-04 -5.16386346E-04  2.11757908E-02  1.80705169E-03  8.91816948E-03
 -1.24760212E-02  9.85676840E-01  1.02137368E-01 -6.81808681E-05 -6.48933542E-04
  8.46126593E-04 -6.53657957E-02 -3.88137196E-05  6.83674036E-03 -6.43390271E-03
 -7.28746397E-04  9.75554041E-04 -7.37162969E-05  8.81024674E-03  4.08008309E-04
  8.63547038E-03  1.44182226E-04  1.38043891E-03  1.46782378E-04 -1.99187071E-04
 -1.47554034E-04 -2.82503641E-03  1.65351025E-03 -4.72018487E-03  7.43701606E-04
  9.86249041E-01  9.31146365E-02 -9.99269772E-05 -3.06033584E-04  4.98617720E-04
 -4.33319076E-02  6.64858618E-03 -8.27966354E-03 -7.20109740E-03  1.13535645E-04
  9.88812468E-05  2.69485591E-04  6.56935988E-04 -1.24212307E-03  3.85283846E-03
 -2.31517251E-03  2.09055491E-03  3.49879198E-03 -2.53036533E-03  1.95401237E-02
 -1.46428758E-03  8.83495998E-04  5.05397646E-04  2.84870183E-03 -1.82707810E-01
  1.69394364E-01 -4.22983298E-02  9.96780322E-02  1.63320454E-03  5.74729750E-01
 -4.51902268E-02  1.13462166E-01 -5.27989098E-03 -1.36495240E-01  1.57566565E-01
  5.18393319E-02 -8.07709759E-02 -4.09082223E-02  1.36389193E-01 -3.22136999E-02
  3.32389967E-02  4.13219366E-02 -9.40632177E-02  8.48355587E-02  1.75542159E-03
 -2.97804333E-02  2.47719803E-02  2.64550187E-01  1.28987370E-02 -4.82499612E-02
  1.59455846E-02  4.14475858E-02 -3.73612843E-02  4.98678935E-02 -9.47184386E-04
  4.12449259E-02 -2.36746092E-03  1.13998976E-01 -1.09151823E-01  2.27521887E-02
 -4.16899200E-02 -1.21831517E-02 -3.62362775E-01  2.48692630E-02 -4.46548076E-02
 -1.41019135E-02 -1.92318355E-02  2.57203868E-02 -3.62657455E-02  1.61292663E-01
 -6.95821104E-02 -2.78535154E-03 -3.09783399E-03 -9.44905517E-03  1.60228591E-02
 -1.97529289E-01  1.83421449E-01 -8.42133165E-03  7.86818230E-03  1.43213599E-02
  5.90237709E-01 -1.07955242E-02 -1.40631331E-02  3.97295969E-02  1.44067134E-02
  1.02372254E-03  1.27876329E-01  8.41574605E-03  1.14267582E-01  5.77783580E-03
  6.52107129E-02 -6.60750965E-02 -2.47356526E-02  3.40904798E-02  2.42303548E-02
 -2.26025653E-01 -2.01478254E-02  3.35257083E-02  1.41713828E-02 -1.40679165E-01
  1.72868654E-01 -8.85517093E-02  1.49350985E-01  6.02563674E-02  3.37390240E-01
 -6.98359763E-02  8.90100416E-02  7.47937353E-02  4.86889590E-02 -4.77036650E-02
 -6.48931125E-02 -9.79732650E-02  2.45103725E-01 -1.66948295E-01 -4.56663087E-02
 -8.06706928E-02  1.84024635E-01  1.83998026E-01  3.98642764E-02 -5.72827164E-02
 -2.46008318E-02 -1.69896923E-01 -5.82576857E-02 -4.18459617E-02  3.71744393E-02
 -4.46483533E-03 -5.82958954E-02  6.88406587E-02  1.66407500E-01 -6.66533068E-03
 -4.59206187E-02  6.19260448E-02  3.79586746E-02 -5.43164776E-02 -5.87059910E-02
 -3.22384165E-02  1.72308777E-01 -6.01478685E-02 -2.42126186E-02 -4.70222048E-03
  6.47192130E-02 -4.41620940E-03  5.35840254E-03 -1.56179555E-01  3.51998832E-01
  6.44468447E-02 -2.82016404E-03 -1.31297329E-01  2.91932861E-01  5.77775589E-02
  4.78742649E-02  4.24640258E-02  2.60880177E-01  1.11827947E-01 -1.19697912E-01
 -3.99334352E-02  4.34839731E-02 -4.05922027E-02 -8.51035958E-02  4.97192460E-02
  1.37741566E-01 -1.72520257E-01 -7.55597218E-02  4.58885735E-02  1.20124338E-01
 -3.92868880E-02  4.60865574E-02 -9.01793861E-02 -1.05434202E-01  2.88907936E-01
  1.80918909E-01 -8.54743144E-02  8.73730005E-03  1.75015109E-01  9.65083264E-03
 -8.79164424E-03  9.47548030E-02  2.75813754E-02 -2.78281799E-01 -5.43551521E-02
  9.18976097E-02  2.39395983E-02 -2.66405485E-01  1.96633899E-01  9.30335111E-02
 -4.94551757E-02 -2.46271811E-02  1.85602708E-01  9.26712754E-02  8.77987455E-02
 -8.05077109E-02 -9.70308314E-02  3.79218780E-01 -2.86010373E-03 -3.67217143E-01
 -1.02574424E-01  3.94461724E-01  3.15824295E-04 -4.34658500E-02  7.36459267E-02
  1.99557836E-01 -2.49997217E-01 -5.04552453E-02  6.76040942E-02  8.84308629E-02
 -2.02474493E-02 -2.58235619E-02  7.33085875E-03 -6.46335293E-03  2.30726710E-02
  1.22680953E-01  4.36331310E-02 -4.21028448E-02  5.15125265E-02  1.05004649E-01
  1.53557407E-02 -9.15346261E-02 -1.10543952E-01  9.07865140E-02  6.23887302E-02
 -5.95476914E-02 -5.96509088E-02 -1.90576585E-02  1.76701091E-02  2.26523340E-01
 -3.82574539E-03  9.35211120E-02  7.92283123E-02  2.37978584E-01 -4.65960166E-03
  9.65404111E-02  8.96393064E-03 -1.57907677E-02  1.93318967E-01  1.58884936E-01
  1.23379953E-01 -1.06562183E-02  2.10400002E-01  1.01458762E-01  1.13198610E-01
 -1.12107399E-03  8.76175005E-04  2.82368926E-01  7.43436656E-02  9.91140551E-02
  7.98622419E-03  3.10392642E-01  9.14992234E-02  1.19727756E-01  2.66635859E-02
  2.95309746E-02 -2.50785021E-02 -1.81316391E-02  1.93751726E-02  1.76740394E-02
 -1.28258690E-03  3.41153763E-03 -1.68450976E-01 -7.53987732E-02  4.47767326E-01
 -3.66856973E-03 -1.91907875E-01 -8.44716886E-02  5.09079562E-01  1.01352009E-02
 -2.70633762E-03  4.62783040E-02 -9.75545198E-03 -9.39907998E-02 -1.24576382E-01
 -2.48386260E-02 -1.09957719E-01  1.59615733E-01 -3.85881245E-02  1.34624263E-02
 -6.79964850E-04 -9.68672854E-02  9.49750720E-02  3.44659114E-01 -3.92398252E-03
 -1.60964476E-01  1.62479326E-01 -1.56195241E-01 -2.59474379E-01 -3.39367719E-02
 -1.86902975E-02 -2.70404801E-02 -5.08991694E-02  3.05356882E-04 -6.69287734E-07
 -2.98029891E-01 -1.30142014E-01 -1.32615202E-01 -3.60855791E-03 -3.64307072E-01
 -1.59795325E-01 -1.63070020E-01 -3.25207054E-04  1.32716205E-04 -8.17112808E-02
 -3.14682340E-02 -3.35561146E-02  2.50749707E-03 -1.25115256E-01 -5.58841819E-02
 -5.46665639E-02  6.16990782E-04 -4.62103845E-04  3.01760491E-01  1.12069223E-01
  1.21236652E-01 -2.97519221E-03  4.31562335E-01  1.61847550E-01  1.76511640E-01
  4.33041634E-03  5.28739865E-03  5.81401852E-04  1.18015225E-03  3.37366317E-04
  1.59198577E-03 -6.42588935E-04  2.12010618E-05 -2.51126037E-01 -1.02057296E-01
 -1.12358460E-01  7.46108766E-03 -4.43240995E-01 -1.79136428E-01 -1.98100959E-01
 -6.22258786E-04  1.31426539E-04  3.43664732E-01  1.44857049E-01  1.54565787E-01
  9.72350045E-03  6.39561675E-01  2.80279797E-01  2.94082050E-01  5.50770874E-04
  1.11659711E-04 -1.69783265E-01 -6.25106622E-02 -6.80126858E-02 -8.92121437E-03
 -3.58224273E-01 -1.26670975E-01 -1.37110164E-01 -2.77110349E-03 -2.08326981E-02
 -6.63768971E-03 -1.65860014E-02  5.64427246E-03  2.73846024E-02  5.89205579E-03
 -7.09217648E-03 -2.54032130E-02 -1.59654614E-02  7.09625754E-02 -3.30083903E-02
 -4.95003604E-02 -2.17189687E-02  1.25923551E-01  3.86709978E-02 -1.66562145E-02
  6.87676972E-02 -1.90524647E-02 -1.34118165E-01 -7.95557410E-01  2.36451289E-01
 -1.78049647E-01 -3.45067896E-01  1.05695410E-01 -2.74964165E-02  3.33108156E-02
 -1.36561756E-01  3.69266777E-02 -1.29197309E+00  1.11265162E-01 -5.37591329E-01
  1.89288060E-01 -2.79745515E-02  9.01579652E-01  2.68481136E-02  1.48149025E+00
  5.08710037E-03  4.92470852E-01  5.03286380E-04  1.01086722E-02 -6.14354396E-03
  2.51996718E-03 -2.68948714E-03 -6.44606107E-02 -2.97207973E-02 -1.41615075E-02
  5.47690618E-02  7.38293138E-02 -2.74196577E-02  9.18442355E-02 -9.24464139E-02
 -1.03517078E-01 -1.09908297E+00  3.71914958E-01 -3.23088186E-01 -4.86724559E-01
 -8.70970133E-02  2.77349599E-02  6.17625271E-02 -6.39844561E-02 -1.04852550E-01
  1.04449142E+00  2.32078458E-01 -2.34574161E-01 -3.96927173E-01  2.81190846E-02
  1.46569951E+00  2.59432972E-02  1.43385913E-01 -4.15624185E-02 -1.45573332E+00
 -1.22012214E-02  1.22340285E-02 -4.31618091E-02  7.10897550E-02  3.44551021E-02
  6.06214492E-02 -9.34008971E-02  1.17649172E-01  1.08941511E-01  9.33168868E-02
 -3.91158434E-02  6.38352914E-02 -4.06831603E-02 -1.03138294E-01 -1.52295311E+00
  3.67990803E-01 -3.38189211E-01 -5.33027903E-01 -2.59543061E-02  8.94556853E-03
 -9.74827953E-02  9.38433031E-02  1.59516329E-01  3.17191852E-01 -4.72700540E-01
  4.61828137E-01  7.46141596E-01 -2.14235947E-02  1.60231426E+00 -1.92665782E-03
 -1.25430058E+00  2.08760479E-02  1.17809046E+00 -1.23989473E-01  2.53856139E-02
 -8.30169526E-02  1.65966954E-01  3.30974623E-02  1.58942189E+00 -3.32160932E-01
  6.87765816E-01  1.04946401E-01  5.99874779E-02  2.65222793E-02 -4.64390854E-02
  9.37029081E-02  6.10488969E-03 -7.67327707E-01 -6.96119492E-01  1.78440914E+00
 -1.27488238E-01  6.13033016E-03  2.62421103E-02  3.83455544E-02 -3.56163422E-02
 -4.24056042E-02 -4.33683205E-01  1.62507670E-01 -4.40039755E-04 -3.42112361E-01
  1.39885990E-02 -2.06809457E-01 -1.26586363E-01  1.62479920E-02  1.37656164E-01
 -2.49739894E-01  3.07429086E-02 -2.42376316E-02 -1.99826528E-02 -1.12593558E-01
  1.49024885E-01 -2.24675535E-01 -4.83741912E-02 -3.15317082E-01  4.05077109E-01
 -1.03916847E-01 -2.78705850E-02  9.75319725E-02  8.66251649E-02 -2.94077213E-01
  1.82441351E+00  3.84960094E-01  9.33744744E-01 -1.74529280E+00  9.76600960E-02
 -3.37899639E-02 -4.12798070E-03  2.14559259E-01 -1.88337083E-01 -1.39674563E+00
 -4.70170101E-02  1.21006980E+00 -1.01944362E+00 -7.71668550E-02  6.55219002E-01
 -2.91601813E-02 -6.74327688E-01 -8.26636044E-02 -3.42503313E-01  1.22285417E-04
 -3.26696433E-04 -2.79156906E-02 -1.19110906E-02 -1.28447571E-02 -4.03994546E-04
 -1.27020570E-01 -5.34982211E-02 -5.80765621E-02 -4.20129221E-04 -9.96005043E-05
 -9.12375943E-01 -3.80147315E-01 -4.13561403E-01  4.78729098E-03  9.45685620E-01
  3.96562591E-01  4.31113326E-01  1.84983923E-04 -2.74138636E-05 -8.29224940E-02
 -2.60095674E-02 -3.14844025E-02  2.56389501E-03 -1.19830518E-01 -4.63355439E-02
 -5.29679812E-02 -4.18559143E-03 -6.68693347E-04 -2.17115808E-03 -1.21791861E-02
  2.18520172E-03  8.94165389E-03 -8.95043284E-03  1.16595709E-02  3.24143145E-02
  7.24343439E-02 -1.37024177E-01 -9.60233628E-03  5.20965376E-02  1.17798962E-01
 -2.21782658E-01 -3.37997983E-02  1.23153487E-01  1.55080831E-01  4.83807345E-01
 -7.86519645E-01  3.06017231E-01 -5.11760494E-01 -3.81949676E-01  1.47145934E+00
  2.75434476E-02 -4.91751642E-02  1.99004591E-02  2.44234161E-03 -3.65687372E-02
  4.48515322E-01 -4.17238704E-02  2.09659545E-01 -6.28976214E-02 -4.26122274E-01
 -5.33907286E-01 -2.66128150E-01  8.96191771E-02  1.57699062E-01  7.38652475E-02
 -4.50720839E-02  6.78187375E-02 -1.27600506E-01  1.84369354E-01  1.10402627E-01
 -5.46979902E-03 -1.69493450E-01  3.13624875E-01  8.25002349E-02  5.09367619E-02
  1.46184188E-01 -3.36901085E-01  8.93129240E-01 -8.14920528E-02 -8.13051188E-01
  4.94957377E-01 -7.04322705E-01 -4.34349003E-01  1.80698583E-02 -3.48875555E-03
 -9.97052347E-03  2.96022122E-03 -2.46819242E-03  8.68890663E-02  7.87108710E-02
 -9.64070265E-03 -2.03079939E-01  6.01839893E-01  2.56604792E-01  2.16769160E-01
  1.12614118E-01 -2.14043672E-01 -7.57328601E-02 -2.18960089E-03  5.52635270E-03
 -5.92774377E-02  1.93139251E-01 -4.50679254E-02 -3.56297267E-01 -5.34142255E-02
  2.31576831E-02  1.01606630E-01  2.19058371E-02 -6.50858382E-01 -4.04913114E-01
  3.85289879E-01  5.43782340E-01  6.13723592E-01  5.06959832E-01 -3.99386840E-01
 -7.83552668E-01 -3.21313245E-02 -1.97137257E-02  5.52280049E-02 -5.05175147E-02
 -8.13615647E-02  7.15768709E-02 -2.39054444E-01  5.76590443E-01  5.10439110E-02
 -7.06516219E-01  8.72303816E-01 -5.81424013E-01 -2.78101618E-02 -9.11315999E-02
 -1.15293675E-01  2.36631647E-03 -2.26554510E-02 -9.06408578E-03  1.06669640E-02
  1.29454721E-02 -6.78048419E-02 -3.30202167E-02  5.00253778E-02  2.62090353E-02
 -4.27962005E-02 -4.91177384E-02 -1.58524502E-01  2.12463397E-01  1.58343229E-01
 -3.26890901E-01  2.04448844E-01 -2.67407758E-01 -2.12655131E-01  8.22475120E-02
 -4.63529174E-03  2.77208756E-02  1.98044263E-01 -2.52070007E-01 -6.25864099E-01
 -1.28806346E-01 -5.30136929E-01  7.92803417E-01 -3.30345362E-01  4.57900220E-01
  7.46986029E-01 -5.77329423E-02  9.80559340E-01 -1.50427620E-01  1.31543363E-04
 -1.03423237E-03  5.52005914E-02  1.98219879E-02  2.62986164E-02  5.44542173E-03
  3.31792586E-02  1.50015090E-02  1.29289918E-02 -2.49482242E-04  1.58184891E-03
  7.72719047E-02  2.67509046E-02  3.16919182E-02 -3.67240036E-03 -3.51832991E-01
 -1.36016683E-01 -1.47565879E-01 -4.03960806E-04  5.68139777E-05 -9.31126710E-01
 -3.43569158E-01 -3.74801607E-01  4.48323237E-03  9.67502458E-01  3.80120543E-01
  4.10059160E-01 -6.07217709E-04 -1.52838174E-03 -2.18226833E-02  3.51446398E-04
  1.76769241E-02 -2.30811513E-03  6.47638456E-03 -6.51975909E-03 -9.66115933E-02
  1.98336845E-01  3.44667738E-02 -2.77327280E-01  1.14892926E-01 -1.94039211E-01
 -7.78694724E-02  5.25063892E-02 -1.50481080E+00  2.23772591E-01 -1.31556042E-01
 -3.78100376E-01  2.46386993E+00 -3.76500216E-01  2.15516364E-01  6.37395500E-01
  9.32606604E-03 -2.45559670E-03  1.94607510E-02  4.32740541E-02 -8.69541379E-02
 -3.70758954E-01 -3.21553244E-02 -3.90623121E-02  1.22074120E-01  5.35130381E-01
 -1.59725556E+00  6.48830540E-02 -2.33775543E-02  1.88543410E-01 -1.89703659E-03
 -1.69465610E-02  4.59351537E-02  2.31424167E-02  1.85558020E-02 -7.53867237E-02
  1.92335671E-01 -2.59928252E-02  7.57459260E-02 -9.26626409E-03 -8.01815857E-03
 -6.54541954E-02  3.38117616E-02 -2.74255476E-02 -5.67250823E-02 -6.09364179E-03
 -3.03721140E-01  2.59178845E-01  4.45963358E-01 -3.76826658E-03  9.37521904E-03
  4.42602944E-01 -4.98523513E-01 -6.73483266E-01  1.21534366E-02 -2.06064899E-01
  1.07456367E-01  4.63329599E-01 -2.10468902E-01 -2.23351304E-01  6.98091823E-01
 -7.54913669E-01 -7.48930058E-01  9.67181194E-01  7.14365925E-03  1.74352401E-02
 -4.27825097E-02  1.07639793E-01 -1.72487605E-02 -1.83000062E-01  3.72168511E-02
 -2.26524700E-01  1.39130178E-01  1.21168345E-02 -1.48289799E-01 -2.49231754E-02
 -1.36882595E-02  6.54700606E-02  1.54365003E+00  1.85716581E-01  5.54296508E-01
 -9.41361147E-01  5.76386269E-02 -1.29224103E-01  3.56471149E-02 -8.38270191E-01
  6.73709927E-01 -5.17259249E-01 -4.11607188E-02  1.42944952E+00 -1.21246513E+00
 -1.46104726E-01  2.97181301E-01  4.38905427E-01 -9.17389982E-01  3.28888625E-01
 -6.29450036E-01  6.98547180E-02 -2.05517137E-01 -1.82991470E-01  2.98753225E-01
  2.06300812E-01 -6.33906911E-01  2.69502142E-01 -6.32518821E-01 -7.26501909E-02
  1.74819907E-02  5.28454394E-01  3.44402980E-02 -1.20099121E-01  2.25354187E-02
 -7.62479835E-01  9.08245028E-01 -1.19068977E+00 -9.47419095E-01 -1.08141091E-02
  5.87418861E-02  2.99755938E-01 -3.53844718E-01 -3.78245094E-01  1.52492520E-01
 -1.12185498E+00  1.37457315E+00  1.43163198E+00  4.75481264E-01  8.04199662E-01
 -7.26802115E-01 -4.52562118E-01  6.44902228E-01  5.41948672E-01  2.41687137E-03
 -9.21512390E-03 -9.03719032E-01 -3.51046166E-01 -3.90546212E-01 -1.26968380E-02
  9.47222407E-01  3.57818777E-01  4.08486628E-01  7.10103147E-04  1.78489318E-02
  2.69568234E-02  4.70755831E-03  1.09982775E-02 -2.22632601E-02 -3.13219617E-01
 -1.68402533E-01 -1.55165173E-01 -3.90938131E-04  1.23671808E-03 -5.31711940E-02
 -2.21907477E-02 -3.44575618E-02  6.30705893E-03  1.30212695E-01  7.80509657E-02
  1.05126974E-01  7.71512040E-03  1.34341330E-02 -2.06886012E-02  7.32491786E-04
  1.51670697E-02  1.57545919E-02 -2.91351741E-02  1.32425598E-01  1.58344728E-01
 -8.61944481E-01  4.13874016E-01 -9.81417177E-02 -1.99718955E-01  1.01646743E+00
 -4.57409864E-01 -1.33822855E-02 -3.09553238E-01 -4.22940688E-02  1.29810307E-01
 -2.99396847E-02 -1.86619156E-01  7.12749560E-02 -3.32602633E-01  1.18098263E-01
 -1.00368703E-02  1.41810940E-03  1.23208925E-01 -2.32528606E-01 -7.53247697E-02
  2.78465721E-01 -4.01689386E-01  5.46686008E-01  4.76048935E-01  1.21433511E-01
 -4.78801749E-02 -2.51618149E-01 -2.45965685E-01  2.43303640E-01  1.80371210E-01
 -8.75630911E-04 -3.32182370E-03 -4.36645780E-01  1.94738748E-01  8.21411378E-01
  1.82620225E-01  5.48700791E-01 -1.56533268E-01 -1.11633694E+00 -5.10209960E-04
  3.80412918E-02  5.39435700E-02 -5.54746462E-02 -6.49344719E-02  4.15941431E-01
 -6.97035273E-01  2.35625321E-01  1.37349960E+00 -1.68838467E-02  1.76559799E-01
 -9.01002364E-02  1.25848645E-01  9.93267503E-02  1.18711185E-01  4.90794329E-01
 -8.16080321E-01 -4.28695865E-01 -4.55930540E-01 -7.32452575E-01  2.94353646E-01
  3.51337309E-01 -3.19000691E-01 -6.05946769E-02 -8.83502252E-03  6.98093616E-02
 -6.28925000E-02  2.03466037E-02  1.26084603E-01 -4.99689628E-03  1.18770433E-01
  6.70167537E-02 -3.35458829E-01  1.99285503E-02  1.04803407E-01  8.23485116E-03
 -1.09933926E-01  8.40480369E-02 -1.44815873E+00 -1.29063697E-01 -6.89866655E-01