4-DWGN_g09_opt                                                          
SP        RHF                                                         STO-3G              
Number of atoms                            I               25
Info1-9                                    I   N=           9
          39          37           0           0           0         110
           1           1           2
Full Title                                 C   N=           2
4-DWGN_g09_opt          
Route                                      C   N=           4
Charge                                     I                0
Multiplicity                               I                1
Number of electrons                        I              116
Number of alpha electrons                  I               58
Number of beta electrons                   I               58
Number of basis functions                  I               93
Number of independent functions            I               93
Number of point charges in /Mol/           I                0
Number of translation vectors              I                0
Atomic numbers                             I   N=          25
           6           6           1           6           1           6
           6           8           6           6           1           6
           1           6           1           6           1           6
           6           8           6           6           1           8
           1
Nuclear charges                            R   N=          25
  6.00000000E+00  6.00000000E+00  1.00000000E+00  6.00000000E+00  1.00000000E+00
  6.00000000E+00  6.00000000E+00  8.00000000E+00  6.00000000E+00  6.00000000E+00
  1.00000000E+00  6.00000000E+00  1.00000000E+00  6.00000000E+00  1.00000000E+00
  6.00000000E+00  1.00000000E+00  6.00000000E+00  6.00000000E+00  8.00000000E+00
  6.00000000E+00  6.00000000E+00  1.00000000E+00  8.00000000E+00  1.00000000E+00
Current cartesian coordinates              R   N=          75
  1.26797033E+00  7.71408884E+00  2.35872838E+01  2.39615006E+00  9.66473408E+00
  2.22061718E+01  3.01044711E+00  1.13572616E+01  2.27833149E+01  2.65584945E+00
  8.90143779E+00  1.96556500E+01  3.52153110E+00  1.01035379E+01  1.81208012E+01
  1.68349087E+00  6.46405201E+00  1.94489877E+01  1.49479416E+00  4.83789921E+00
  1.72160211E+01  2.23293063E+00  5.48098435E+00  1.51267097E+01  3.91160081E-01
  2.27882641E+00  1.76847923E+01  2.21097958E-01  5.78925160E-01  1.56685697E+01
  1.09321035E+00  1.17997523E+00  1.37103146E+01 -6.99928103E-01 -1.84739816E+00
  1.60642538E+01 -6.17345182E-01 -3.06056076E+00  1.44159912E+01 -1.51893352E+00
 -2.58488268E+00  1.84585179E+01 -2.18962567E+00 -4.60927825E+00  1.88012765E+01
 -1.39975983E+00 -8.88668280E-01  2.04772613E+01 -2.12695290E+00 -1.54871749E+00
  2.23548687E+01 -4.53778047E-01  1.53396818E+00  2.01067805E+01 -2.82328864E-01
  3.28549297E+00  2.22414549E+01 -1.15616090E+00  2.52957228E+00  2.43937736E+01
  8.01565134E-01  5.66388150E+00  2.18634133E+01  6.46250433E-01  7.82102277E+00
  2.61907311E+01  8.91024769E-01  9.55042454E+00  2.72190048E+01 -4.27769746E-01
  6.10268535E+00  2.73853442E+01 -9.76283543E-01  4.12991332E+00  2.58580543E+01
Number of symbols in /Mol/                 I                0
Force Field                                I                0
Atom Types                                 C   N=          25
                                                            
                                                            
                                                            
                                                            
                                                            
Int Atom Types                             I   N=          25
           0           0           0           0           0           0
           0           0           0           0           0           0
           0           0           0           0           0           0
           0           0           0           0           0           0
           0
MM charges                                 R   N=          25
  0.00000000E+00  0.00000000E+00  0.00000000E+00  0.00000000E+00  0.00000000E+00
  0.00000000E+00  0.00000000E+00  0.00000000E+00  0.00000000E+00  0.00000000E+00
  0.00000000E+00  0.00000000E+00  0.00000000E+00  0.00000000E+00  0.00000000E+00
  0.00000000E+00  0.00000000E+00  0.00000000E+00  0.00000000E+00  0.00000000E+00
  0.00000000E+00  0.00000000E+00  0.00000000E+00  0.00000000E+00  0.00000000E+00
Integer atomic weights                     I   N=          25
          12          12           1          12           1          12
          12          16          12          12           1          12
           1          12           1          12           1          12
          12          16          12          12           1          16
           1
Real atomic weights                        R   N=          25
  1.20000000E+01  1.20000000E+01  1.00782504E+00  1.20000000E+01  1.00782504E+00
  1.20000000E+01  1.20000000E+01  1.59949146E+01  1.20000000E+01  1.20000000E+01
  1.00782504E+00  1.20000000E+01  1.00782504E+00  1.20000000E+01  1.00782504E+00
  1.20000000E+01  1.00782504E+00  1.20000000E+01  1.20000000E+01  1.59949146E+01
  1.20000000E+01  1.20000000E+01  1.00782504E+00  1.59949146E+01  1.00782504E+00
Atom fragment info                         I   N=          25
           0           0           0           0           0           0
           0           0           0           0           0           0
           0           0           0           0           0           0
           0           0           0           0           0           0
           0
Atom residue num                           I   N=          25
           0           0           0           0           0           0
           0           0           0           0           0           0
           0           0           0           0           0           0
           0           0           0           0           0           0
           0
Nuclear spins                              I   N=          25
           0           0           1           0           1           0
           0           0           0           0           1           0
           1           0           1           0           1           0
           0           0           0           0           1           0
           1
Nuclear ZEff                               R   N=          25
 -3.60000000E+00 -3.60000000E+00 -1.00000000E+00 -3.60000000E+00 -1.00000000E+00
 -3.60000000E+00 -3.60000000E+00 -5.60000000E+00 -3.60000000E+00 -3.60000000E+00
 -1.00000000E+00 -3.60000000E+00 -1.00000000E+00 -3.60000000E+00 -1.00000000E+00
 -3.60000000E+00 -1.00000000E+00 -3.60000000E+00 -3.60000000E+00 -5.60000000E+00
 -3.60000000E+00 -3.60000000E+00 -1.00000000E+00 -5.60000000E+00 -1.00000000E+00
Nuclear ZNuc                               R   N=          25
  6.00000000E+00  6.00000000E+00  1.00000000E+00  6.00000000E+00  1.00000000E+00
  6.00000000E+00  6.00000000E+00  8.00000000E+00  6.00000000E+00  6.00000000E+00
  1.00000000E+00  6.00000000E+00  1.00000000E+00  6.00000000E+00  1.00000000E+00
  6.00000000E+00  1.00000000E+00  6.00000000E+00  6.00000000E+00  8.00000000E+00
  6.00000000E+00  6.00000000E+00  1.00000000E+00  8.00000000E+00  1.00000000E+00
Nuclear QMom                               R   N=          25
  0.00000000E+00  0.00000000E+00  0.00000000E+00  0.00000000E+00  0.00000000E+00
  0.00000000E+00  0.00000000E+00  0.00000000E+00  0.00000000E+00  0.00000000E+00
  0.00000000E+00  0.00000000E+00  0.00000000E+00  0.00000000E+00  0.00000000E+00
  0.00000000E+00  0.00000000E+00  0.00000000E+00  0.00000000E+00  0.00000000E+00
  0.00000000E+00  0.00000000E+00  0.00000000E+00  0.00000000E+00  0.00000000E+00
Nuclear GFac                               R   N=          25
  0.00000000E+00  0.00000000E+00  2.79284600E+00  0.00000000E+00  2.79284600E+00
  0.00000000E+00  0.00000000E+00  0.00000000E+00  0.00000000E+00  0.00000000E+00
  2.79284600E+00  0.00000000E+00  2.79284600E+00  0.00000000E+00  2.79284600E+00
  0.00000000E+00  2.79284600E+00  0.00000000E+00  0.00000000E+00  0.00000000E+00
  0.00000000E+00  0.00000000E+00  2.79284600E+00  0.00000000E+00  2.79284600E+00
MicOpt                                     I   N=          25
          -1          -1          -1          -1          -1          -1
          -1          -1          -1          -1          -1          -1
          -1          -1          -1          -1          -1          -1
          -1          -1          -1          -1          -1          -1
          -1
Number of residues                         I                0
Number of secondary structures             I                0
Number of contracted shells                I               42
Number of primitive shells                 I              126
Pure/Cartesian d shells                    I                1
Pure/Cartesian f shells                    I                1
Highest angular momentum                   I                1
Largest degree of contraction              I                3
Shell types                                I   N=          42
           0          -1           0          -1           0           0
          -1           0           0          -1           0          -1
           0          -1           0          -1           0          -1
           0           0          -1           0           0          -1
           0           0          -1           0           0          -1
           0          -1           0          -1           0          -1
           0          -1           0           0          -1           0
Number of primitives per shell             I   N=          42
           3           3           3           3           3           3
           3           3           3           3           3           3
           3           3           3           3           3           3
           3           3           3           3           3           3
           3           3           3           3           3           3
           3           3           3           3           3           3
           3           3           3           3           3           3
Shell to atom map                          I   N=          42
           1           1           2           2           3           4
           4           5           6           6           7           7
           8           8           9           9          10          10
          11          12          12          13          14          14
          15          16          16          17          18          18
          19          19          20          20          21          21
          22          22          23          24          24          25
Primitive exponents                        R   N=         126
  7.16168373E+01  1.30450963E+01  3.53051216E+00  2.94124936E+00  6.83483096E-01
  2.22289916E-01  7.16168373E+01  1.30450963E+01  3.53051216E+00  2.94124936E+00
  6.83483096E-01  2.22289916E-01  3.42525091E+00  6.23913730E-01  1.68855404E-01
  7.16168373E+01  1.30450963E+01  3.53051216E+00  2.94124936E+00  6.83483096E-01
  2.22289916E-01  3.42525091E+00  6.23913730E-01  1.68855404E-01  7.16168373E+01
  1.30450963E+01  3.53051216E+00  2.94124936E+00  6.83483096E-01  2.22289916E-01
  7.16168373E+01  1.30450963E+01  3.53051216E+00  2.94124936E+00  6.83483096E-01
  2.22289916E-01  1.30709321E+02  2.38088661E+01  6.44360831E+00  5.03315132E+00
  1.16959612E+00  3.80388960E-01  7.16168373E+01  1.30450963E+01  3.53051216E+00
  2.94124936E+00  6.83483096E-01  2.22289916E-01  7.16168373E+01  1.30450963E+01
  3.53051216E+00  2.94124936E+00  6.83483096E-01  2.22289916E-01  3.42525091E+00
  6.23913730E-01  1.68855404E-01  7.16168373E+01  1.30450963E+01  3.53051216E+00
  2.94124936E+00  6.83483096E-01  2.22289916E-01  3.42525091E+00  6.23913730E-01
  1.68855404E-01  7.16168373E+01  1.30450963E+01  3.53051216E+00  2.94124936E+00
  6.83483096E-01  2.22289916E-01  3.42525091E+00  6.23913730E-01  1.68855404E-01
  7.16168373E+01  1.30450963E+01  3.53051216E+00  2.94124936E+00  6.83483096E-01
  2.22289916E-01  3.42525091E+00  6.23913730E-01  1.68855404E-01  7.16168373E+01
  1.30450963E+01  3.53051216E+00  2.94124936E+00  6.83483096E-01  2.22289916E-01
  7.16168373E+01  1.30450963E+01  3.53051216E+00  2.94124936E+00  6.83483096E-01
  2.22289916E-01  1.30709321E+02  2.38088661E+01  6.44360831E+00  5.03315132E+00
  1.16959612E+00  3.80388960E-01  7.16168373E+01  1.30450963E+01  3.53051216E+00
  2.94124936E+00  6.83483096E-01  2.22289916E-01  7.16168373E+01  1.30450963E+01
  3.53051216E+00  2.94124936E+00  6.83483096E-01  2.22289916E-01  3.42525091E+00
  6.23913730E-01  1.68855404E-01  1.30709321E+02  2.38088661E+01  6.44360831E+00
  5.03315132E+00  1.16959612E+00  3.80388960E-01  3.42525091E+00  6.23913730E-01
  1.68855404E-01
Contraction coefficients                   R   N=         126
  1.54328967E-01  5.35328142E-01  4.44634542E-01 -9.99672292E-02  3.99512826E-01
  7.00115469E-01  1.54328967E-01  5.35328142E-01  4.44634542E-01 -9.99672292E-02
  3.99512826E-01  7.00115469E-01  1.54328967E-01  5.35328142E-01  4.44634542E-01
  1.54328967E-01  5.35328142E-01  4.44634542E-01 -9.99672292E-02  3.99512826E-01
  7.00115469E-01  1.54328967E-01  5.35328142E-01  4.44634542E-01  1.54328967E-01
  5.35328142E-01  4.44634542E-01 -9.99672292E-02  3.99512826E-01  7.00115469E-01
  1.54328967E-01  5.35328142E-01  4.44634542E-01 -9.99672292E-02  3.99512826E-01
  7.00115469E-01  1.54328967E-01  5.35328142E-01  4.44634542E-01 -9.99672292E-02
  3.99512826E-01  7.00115469E-01  1.54328967E-01  5.35328142E-01  4.44634542E-01
 -9.99672292E-02  3.99512826E-01  7.00115469E-01  1.54328967E-01  5.35328142E-01
  4.44634542E-01 -9.99672292E-02  3.99512826E-01  7.00115469E-01  1.54328967E-01
  5.35328142E-01  4.44634542E-01  1.54328967E-01  5.35328142E-01  4.44634542E-01
 -9.99672292E-02  3.99512826E-01  7.00115469E-01  1.54328967E-01  5.35328142E-01
  4.44634542E-01  1.54328967E-01  5.35328142E-01  4.44634542E-01 -9.99672292E-02
  3.99512826E-01  7.00115469E-01  1.54328967E-01  5.35328142E-01  4.44634542E-01
  1.54328967E-01  5.35328142E-01  4.44634542E-01 -9.99672292E-02  3.99512826E-01
  7.00115469E-01  1.54328967E-01  5.35328142E-01  4.44634542E-01  1.54328967E-01
  5.35328142E-01  4.44634542E-01 -9.99672292E-02  3.99512826E-01  7.00115469E-01
  1.54328967E-01  5.35328142E-01  4.44634542E-01 -9.99672292E-02  3.99512826E-01
  7.00115469E-01  1.54328967E-01  5.35328142E-01  4.44634542E-01 -9.99672292E-02
  3.99512826E-01  7.00115469E-01  1.54328967E-01  5.35328142E-01  4.44634542E-01
 -9.99672292E-02  3.99512826E-01  7.00115469E-01  1.54328967E-01  5.35328142E-01
  4.44634542E-01 -9.99672292E-02  3.99512826E-01  7.00115469E-01  1.54328967E-01
  5.35328142E-01  4.44634542E-01  1.54328967E-01  5.35328142E-01  4.44634542E-01
 -9.99672292E-02  3.99512826E-01  7.00115469E-01  1.54328967E-01  5.35328142E-01
  4.44634542E-01
P(S=P) Contraction coefficients            R   N=         126
  0.00000000E+00  0.00000000E+00  0.00000000E+00  1.55916275E-01  6.07683719E-01
  3.91957393E-01  0.00000000E+00  0.00000000E+00  0.00000000E+00  1.55916275E-01
  6.07683719E-01  3.91957393E-01  0.00000000E+00  0.00000000E+00  0.00000000E+00
  0.00000000E+00  0.00000000E+00  0.00000000E+00  1.55916275E-01  6.07683719E-01
  3.91957393E-01  0.00000000E+00  0.00000000E+00  0.00000000E+00  0.00000000E+00
  0.00000000E+00  0.00000000E+00  1.55916275E-01  6.07683719E-01  3.91957393E-01
  0.00000000E+00  0.00000000E+00  0.00000000E+00  1.55916275E-01  6.07683719E-01
  3.91957393E-01  0.00000000E+00  0.00000000E+00  0.00000000E+00  1.55916275E-01
  6.07683719E-01  3.91957393E-01  0.00000000E+00  0.00000000E+00  0.00000000E+00
  1.55916275E-01  6.07683719E-01  3.91957393E-01  0.00000000E+00  0.00000000E+00
  0.00000000E+00  1.55916275E-01  6.07683719E-01  3.91957393E-01  0.00000000E+00
  0.00000000E+00  0.00000000E+00  0.00000000E+00  0.00000000E+00  0.00000000E+00
  1.55916275E-01  6.07683719E-01  3.91957393E-01  0.00000000E+00  0.00000000E+00
  0.00000000E+00  0.00000000E+00  0.00000000E+00  0.00000000E+00  1.55916275E-01
  6.07683719E-01  3.91957393E-01  0.00000000E+00  0.00000000E+00  0.00000000E+00
  0.00000000E+00  0.00000000E+00  0.00000000E+00  1.55916275E-01  6.07683719E-01
  3.91957393E-01  0.00000000E+00  0.00000000E+00  0.00000000E+00  0.00000000E+00
  0.00000000E+00  0.00000000E+00  1.55916275E-01  6.07683719E-01  3.91957393E-01
  0.00000000E+00  0.00000000E+00  0.00000000E+00  1.55916275E-01  6.07683719E-01
  3.91957393E-01  0.00000000E+00  0.00000000E+00  0.00000000E+00  1.55916275E-01
  6.07683719E-01  3.91957393E-01  0.00000000E+00  0.00000000E+00  0.00000000E+00
  1.55916275E-01  6.07683719E-01  3.91957393E-01  0.00000000E+00  0.00000000E+00
  0.00000000E+00  1.55916275E-01  6.07683719E-01  3.91957393E-01  0.00000000E+00
  0.00000000E+00  0.00000000E+00  0.00000000E+00  0.00000000E+00  0.00000000E+00
  1.55916275E-01  6.07683719E-01  3.91957393E-01  0.00000000E+00  0.00000000E+00
  0.00000000E+00
Coordinates of each shell                  R   N=         126
  1.26797033E+00  7.71408884E+00  2.35872838E+01  1.26797033E+00  7.71408884E+00
  2.35872838E+01  2.39615006E+00  9.66473408E+00  2.22061718E+01  2.39615006E+00
  9.66473408E+00  2.22061718E+01  3.01044711E+00  1.13572616E+01  2.27833149E+01
  2.65584945E+00  8.90143779E+00  1.96556500E+01  2.65584945E+00  8.90143779E+00
  1.96556500E+01  3.52153110E+00  1.01035379E+01  1.81208012E+01  1.68349087E+00
  6.46405201E+00  1.94489877E+01  1.68349087E+00  6.46405201E+00  1.94489877E+01
  1.49479416E+00  4.83789921E+00  1.72160211E+01  1.49479416E+00  4.83789921E+00
  1.72160211E+01  2.23293063E+00  5.48098435E+00  1.51267097E+01  2.23293063E+00
  5.48098435E+00  1.51267097E+01  3.91160081E-01  2.27882641E+00  1.76847923E+01
  3.91160081E-01  2.27882641E+00  1.76847923E+01  2.21097958E-01  5.78925160E-01
  1.56685697E+01  2.21097958E-01  5.78925160E-01  1.56685697E+01  1.09321035E+00
  1.17997523E+00  1.37103146E+01 -6.99928103E-01 -1.84739816E+00  1.60642538E+01
 -6.99928103E-01 -1.84739816E+00  1.60642538E+01 -6.17345182E-01 -3.06056076E+00
  1.44159912E+01 -1.51893352E+00 -2.58488268E+00  1.84585179E+01 -1.51893352E+00
 -2.58488268E+00  1.84585179E+01 -2.18962567E+00 -4.60927825E+00  1.88012765E+01
 -1.39975983E+00 -8.88668280E-01  2.04772613E+01 -1.39975983E+00 -8.88668280E-01
  2.04772613E+01 -2.12695290E+00 -1.54871749E+00  2.23548687E+01 -4.53778047E-01
  1.53396818E+00  2.01067805E+01 -4.53778047E-01  1.53396818E+00  2.01067805E+01
 -2.82328864E-01  3.28549297E+00  2.22414549E+01 -2.82328864E-01  3.28549297E+00
  2.22414549E+01 -1.15616090E+00  2.52957228E+00  2.43937736E+01 -1.15616090E+00
  2.52957228E+00  2.43937736E+01  8.01565134E-01  5.66388150E+00  2.18634133E+01
  8.01565134E-01  5.66388150E+00  2.18634133E+01  6.46250433E-01  7.82102277E+00
  2.61907311E+01  6.46250433E-01  7.82102277E+00  2.61907311E+01  8.91024769E-01
  9.55042454E+00  2.72190048E+01 -4.27769746E-01  6.10268535E+00  2.73853442E+01
 -4.27769746E-01  6.10268535E+00  2.73853442E+01 -9.76283543E-01  4.12991332E+00
  2.58580543E+01
Constraint Structure                       R   N=          75
  1.26797033E+00  7.71408884E+00  2.35872838E+01  2.39615006E+00  9.66473408E+00
  2.22061718E+01  3.01044711E+00  1.13572616E+01  2.27833149E+01  2.65584945E+00
  8.90143779E+00  1.96556500E+01  3.52153110E+00  1.01035379E+01  1.81208012E+01
  1.68349087E+00  6.46405201E+00  1.94489877E+01  1.49479416E+00  4.83789921E+00
  1.72160211E+01  2.23293063E+00  5.48098435E+00  1.51267097E+01  3.91160081E-01
  2.27882641E+00  1.76847923E+01  2.21097958E-01  5.78925160E-01  1.56685697E+01
  1.09321035E+00  1.17997523E+00  1.37103146E+01 -6.99928103E-01 -1.84739816E+00
  1.60642538E+01 -6.17345182E-01 -3.06056076E+00  1.44159912E+01 -1.51893352E+00
 -2.58488268E+00  1.84585179E+01 -2.18962567E+00 -4.60927825E+00  1.88012765E+01
 -1.39975983E+00 -8.88668280E-01  2.04772613E+01 -2.12695290E+00 -1.54871749E+00
  2.23548687E+01 -4.53778047E-01  1.53396818E+00  2.01067805E+01 -2.82328864E-01
  3.28549297E+00  2.22414549E+01 -1.15616090E+00  2.52957228E+00  2.43937736E+01
  8.01565134E-01  5.66388150E+00  2.18634133E+01  6.46250433E-01  7.82102277E+00
  2.61907311E+01  8.91024769E-01  9.55042454E+00  2.72190048E+01 -4.27769746E-01
  6.10268535E+00  2.73853442E+01 -9.76283543E-01  4.12991332E+00  2.58580543E+01
Num ILSW                                   I              100
ILSW                                       I   N=         100
           0           1           0           0           2           0
           0           0           3           0           0          -1
           0           0           0           1           0           0
           0           0           1           0           0           0
           1           1           0           0           0           0
           0           0      100000           0          -1           0
           0           0           0           0           0           0
           0           0           0           1           0           0
           0           0           1           0           0           0
           0           0           4          41           0           0
           0           0           0           0           0           0
           0           0           0           0           0           0
           0           0           0           0           0           0
           0           0           0           0           0           0
           0           0           0           0           0           0
           0           0           0           0           0           0
           0           0           0           0
Num RLSW                                   I               41
RLSW                                       R   N=          41
  1.00000000E+00  1.00000000E+00  1.00000000E+00  1.00000000E+00  1.00000000E+00
  0.00000000E+00  0.00000000E+00  1.00000000E+00  0.00000000E+00  0.00000000E+00
  0.00000000E+00  0.00000000E+00  1.00000000E+00  0.00000000E+00  0.00000000E+00
  0.00000000E+00  0.00000000E+00  1.00000000E+00  0.00000000E+00  0.00000000E+00
  0.00000000E+00  0.00000000E+00  1.00000000E+00  0.00000000E+00  0.00000000E+00
  0.00000000E+00  0.00000000E+00  1.00000000E+00  0.00000000E+00  0.00000000E+00
  0.00000000E+00  0.00000000E+00  1.00000000E+00  0.00000000E+00  0.00000000E+00
  0.00000000E+00  0.00000000E+00  0.00000000E+00  1.00000000E+00  1.00000000E+00
  0.00000000E+00
MxBond                                     I                3
NBond                                      I   N=          25
           3           3           1           3           1           3
           3           1           3           3           1           3
           1           3           1           3           1           3
           3           1           3           3           1           1
           0
IBond                                      I   N=          75
           2          21          22           1           3           4
           2           0           0           2           5           6
           4           0           0           4           7          21
           6           8           9           7           0           0
           7          10          18           9          11          12
          10           0           0          10          13          14
          12           0           0          12          15          16
          14           0           0          14          17          18
          16           0           0           9          16          19
          18          20          21          19           0           0
           1           6          19           1          23          24
          22           0           0          22           0           0
           0           0           0
RBond                                      R   N=          75
  1.50000000E+00  1.00000000E+00  1.50000000E+00  1.50000000E+00  1.00000000E+00
  1.50000000E+00  1.00000000E+00  0.00000000E+00  0.00000000E+00  1.50000000E+00
  1.00000000E+00  1.50000000E+00  1.00000000E+00  0.00000000E+00  0.00000000E+00
  1.50000000E+00  1.00000000E+00  1.50000000E+00  1.00000000E+00  2.00000000E+00
  1.00000000E+00  2.00000000E+00  0.00000000E+00  0.00000000E+00  1.00000000E+00
  1.50000000E+00  1.50000000E+00  1.50000000E+00  1.00000000E+00  1.50000000E+00
  1.00000000E+00  0.00000000E+00  0.00000000E+00  1.50000000E+00  1.00000000E+00
  1.50000000E+00  1.00000000E+00  0.00000000E+00  0.00000000E+00  1.50000000E+00
  1.00000000E+00  1.50000000E+00  1.00000000E+00  0.00000000E+00  0.00000000E+00
  1.50000000E+00  1.00000000E+00  1.50000000E+00  1.00000000E+00  0.00000000E+00
  0.00000000E+00  1.50000000E+00  1.50000000E+00  1.00000000E+00  1.00000000E+00
  1.00000000E+00  1.50000000E+00  1.00000000E+00  0.00000000E+00  0.00000000E+00
  1.00000000E+00  1.50000000E+00  1.50000000E+00  1.50000000E+00  1.00000000E+00
  2.00000000E+00  1.00000000E+00  0.00000000E+00  0.00000000E+00  2.00000000E+00
  0.00000000E+00  0.00000000E+00  0.00000000E+00  0.00000000E+00  0.00000000E+00
Virial Ratio                               R      2.008723096889758E+00
SCF Energy                                 R     -7.497447227880559E+02
Total Energy                               R     -7.497447227880559E+02
RMS Density                                R      7.028836729727681E-09
External E-field                           R   N=          35
  0.00000000E+00  0.00000000E+00  0.00000000E+00  0.00000000E+00  0.00000000E+00
  0.00000000E+00  0.00000000E+00  0.00000000E+00  0.00000000E+00  0.00000000E+00
  0.00000000E+00  0.00000000E+00  0.00000000E+00  0.00000000E+00  0.00000000E+00
  0.00000000E+00  0.00000000E+00  0.00000000E+00  0.00000000E+00  0.00000000E+00
  0.00000000E+00  0.00000000E+00  0.00000000E+00  0.00000000E+00  0.00000000E+00
  0.00000000E+00  0.00000000E+00  0.00000000E+00  0.00000000E+00  0.00000000E+00
  0.00000000E+00  0.00000000E+00  0.00000000E+00  0.00000000E+00  0.00000000E+00
IOpCl                                      I                0
IROHF                                      I                0
Alpha Orbital Energies                     R   N=          93
 -2.03068953E+01 -2.03025173E+01 -2.02755363E+01 -1.11643179E+01 -1.11607366E+01
 -1.11211191E+01 -1.10648415E+01 -1.10596170E+01 -1.10572503E+01 -1.10552368E+01
 -1.10538237E+01 -1.10490742E+01 -1.10119023E+01 -1.10109510E+01 -1.10093044E+01
 -1.09977679E+01 -1.09946715E+01 -1.37110931E+00 -1.34045295E+00 -1.32352531E+00
 -1.12549229E+00 -1.10051733E+00 -1.01498301E+00 -9.83099698E-01 -9.48325891E-01
 -9.32029110E-01 -8.65371647E-01 -8.26536352E-01 -7.97582176E-01 -7.58143676E-01
 -7.34545980E-01 -7.01849747E-01 -6.89437622E-01 -6.51835970E-01 -6.35385250E-01
 -5.99183355E-01 -5.83882585E-01 -5.67197002E-01 -5.53096950E-01 -5.50666448E-01
 -5.45013813E-01 -5.31674455E-01 -5.02554587E-01 -5.01280596E-01 -4.85580497E-01
 -4.78509239E-01 -4.64519869E-01 -4.55377543E-01 -4.51612023E-01 -4.34263104E-01
 -4.27463014E-01 -4.01245619E-01 -3.43720038E-01 -3.25901599E-01 -3.08491826E-01
 -2.88034351E-01 -2.23120507E-01 -2.21191295E-01  1.12724454E-01  2.14218806E-01
  2.27257236E-01  2.96684047E-01  3.35178274E-01  4.44875986E-01  4.57890653E-01
  5.25140680E-01  5.47568298E-01  5.57641166E-01  5.77768098E-01  6.06002733E-01
  6.16922997E-01  6.29701168E-01  6.42287081E-01  6.73060927E-01  6.82830646E-01
  7.03437401E-01  7.42521636E-01  7.53115722E-01  7.68747818E-01  7.80552361E-01
  8.05060744E-01  8.24636578E-01  8.47842488E-01  8.74901501E-01  8.85618871E-01
  9.13874247E-01  9.60979439E-01  1.00308515E+00  1.05738063E+00  1.08209053E+00
  1.12397642E+00  1.15611426E+00  1.17664585E+00
Alpha MO coefficients                      R   N=        8649
 -3.07347401E-05  2.73861662E-04 -2.88799807E-04 -5.61506267E-04  1.37982626E-04
  7.75851398E-07  8.86331772E-05 -2.21275541E-05 -8.07964480E-05 -3.09017517E-05
 -1.01197146E-05  1.84692102E-06 -2.88552446E-05  4.84109595E-06  1.73443678E-06
 -1.99156537E-05 -2.94140010E-07 -2.08122791E-06  3.94964430E-05 -4.43828587E-06
  1.39678468E-06  2.83315532E-05 -5.27917012E-08  1.58698033E-06  9.25898235E-07
  1.75510280E-06 -1.44707330E-06 -5.75699521E-06 -1.15582614E-06  2.58644013E-07
  1.19370592E-07 -6.15689941E-07 -4.68714610E-08  2.96383117E-06 -1.31030346E-06
 -3.10992604E-06  2.63708575E-07  6.55195841E-08 -1.00041220E-06 -6.55623962E-09
 -4.11689212E-07 -6.01465436E-07  7.43232751E-08 -2.97793037E-09 -6.99471746E-08
  3.71699707E-08  1.23969984E-07  2.36445135E-08  4.54461745E-08 -5.16431076E-08
  8.25303681E-07  2.17405192E-07  7.36561753E-07  8.05986436E-08  7.80939316E-08
 -1.47670844E-07 -3.60554074E-06 -9.81516130E-07 -1.56380714E-06  2.17344273E-06
  1.29161364E-06 -2.09156371E-06  2.45187005E-05 -5.48737951E-06 -6.78616039E-07
  2.44326653E-05 -2.28312094E-06 -8.23974878E-05  4.26758573E-05  8.46748972E-05
 -4.80606509E-05  3.86379014E-02  2.04405499E-03  9.46509541E-05  6.90846395E-04
  5.29362054E-04 -6.22162348E-06 -7.20683318E-05 -6.22764525E-05 -1.04985398E-04
  5.01535512E-05  5.32025569E-04 -6.67929901E-03  2.71108014E-03  4.30695322E-03
 -2.99131042E-03  3.39162040E-04  9.93396985E-01  2.64342970E-02  2.11632039E-03
  2.83631840E-03 -3.37578487E-03 -3.63874917E-03 -3.43806284E-06 -1.00063660E-04
 -1.76990250E-05  2.06182742E-05  1.03467587E-04 -2.37280480E-06  3.54142595E-05
 -1.03824941E-05 -2.25271368E-05  8.52887385E-06  2.51497412E-06  1.30640297E-06
 -2.33621875E-05  7.23112853E-06  1.51921522E-05 -3.42818302E-06 -4.20875297E-07
 -4.77364206E-07  8.63558211E-05  1.86870887E-07  3.74524478E-05  7.76023388E-05