NH2CN Obs coords: Acta Cryst C44 1988 p1979 B3LYP/cc-pVTZ               
SP        RB3LYP                                                      CC-pVTZ
Number of atoms                            I                5
Charge                                     I                0
Multiplicity                               I                1
Number of electrons                        I               22
Number of alpha electrons                  I               11
Number of beta electrons                   I               11
Number of basis functions                  I              135
Number of independant functions            I              135
Number of contracted shells                I               42
Highest angular momentum                   I                3
Largest degree of contraction              I                8
Number of primitive shells                 I               94
Viriral Ratio                              R      2.002129940116682E+00
SCF Energy                                 R     -1.488176279860145E+02
Total Energy                               R     -1.488176279860145E+02
RMS Density                                R      3.934795589787555E-09
Atomic numbers                             I   N=           5
           7           7           6           1           1
Nuclear charges                            R   N=           5
  7.00000000E+00  7.00000000E+00  6.00000000E+00  1.00000000E+00  1.00000000E+00
Current cartesian coordinates              R   N=          15
 -2.08378002E+00 -1.16157916E-03 -6.84578096E-02  2.57655636E+00 -1.42473254E-03
  6.44638973E-03  3.99588075E-01 -1.31125918E-02  7.80766375E-03 -3.03648155E+00
 -1.38136329E+00  2.00127287E-01 -2.81048131E+00  1.47814302E+00  1.87106669E-01
Atom types                                 I   N=           5
           0           0           0           0           0
Force Field                                I                0
MM charges                                 R   N=           5
  0.00000000E+00  0.00000000E+00  0.00000000E+00  0.00000000E+00  0.00000000E+00
ONIOM Charges                              I   N=           4
           0           0           0           0
ONIOM Multiplicities                       I   N=           4
           1           0           0           0
Atom Layers                                I   N=           5
           1           1           1           1           1
Atom Modifiers                             I   N=           5
           0           0           0           0           0
Atom types                                 I   N=           5
           0           0           0           0           0
Link Atoms                                 I   N=           5
           0           0           0           0           0
Atom Modified MM Charges                   R   N=           5
  0.00000000E+00  0.00000000E+00  0.00000000E+00  0.00000000E+00  0.00000000E+00
Link Distances                             R   N=           5
  0.00000000E+00  0.00000000E+00  0.00000000E+00  0.00000000E+00  0.00000000E+00
MxBond                                     I                3
NBond                                      I   N=           5
           3           1           2           1           1
IBond                                      I   N=          15
           3           4           5           3           0           0
           1           2           0           1           0           0
           1           0           0
RBond                                      R   N=          15
  1.50000000E+00  1.00000000E+00  1.00000000E+00  3.00000000E+00  0.00000000E+00
  0.00000000E+00  1.50000000E+00  3.00000000E+00  0.00000000E+00  1.00000000E+00
  0.00000000E+00  0.00000000E+00  1.00000000E+00  0.00000000E+00  0.00000000E+00
Shell types                                I   N=          42
           0           0           0           0           1           1
           1           2           2           3           0           0
           0           0           1           1           1           2
           2           3           0           0           0           0
           1           1           1           2           2           3
           0           0           0           1           1           2
           0           0           0           1           1           2
Number of primitives per shell             I   N=          42
           8           8           1           1           3           1
           1           1           1           1           8           8
           1           1           3           1           1           1
           1           1           8           8           1           1
           3           1           1           1           1           1
           3           1           1           1           1           1
           3           1           1           1           1           1
Shell to atom map                          I   N=          42
           1           1           1           1           1           1
           1           1           1           1           2           2
           2           2           2           2           2           2
           2           2           3           3           3           3
           3           3           3           3           3           3
           4           4           4           4           4           4
           5           5           5           5           5           5
Primitive exponents                        R   N=          94
  1.14200000E+04  1.71200000E+03  3.89300000E+02  1.10000000E+02  3.55700000E+01
  1.25400000E+01  4.64400000E+00  5.11800000E-01  1.14200000E+04  1.71200000E+03
  3.89300000E+02  1.10000000E+02  3.55700000E+01  1.25400000E+01  4.64400000E+00
  5.11800000E-01  1.29300000E+00  1.78700000E-01  2.66300000E+01  5.94800000E+00
  1.74200000E+00  5.55000000E-01  1.72500000E-01  1.65400000E+00  4.69000000E-01
  1.09300000E+00  1.14200000E+04  1.71200000E+03  3.89300000E+02  1.10000000E+02
  3.55700000E+01  1.25400000E+01  4.64400000E+00  5.11800000E-01  1.14200000E+04
  1.71200000E+03  3.89300000E+02  1.10000000E+02  3.55700000E+01  1.25400000E+01
  4.64400000E+00  5.11800000E-01  1.29300000E+00  1.78700000E-01  2.66300000E+01
  5.94800000E+00  1.74200000E+00  5.55000000E-01  1.72500000E-01  1.65400000E+00
  4.69000000E-01  1.09300000E+00  8.23600000E+03  1.23500000E+03  2.80800000E+02
  7.92700000E+01  2.55900000E+01  8.99700000E+00  3.31900000E+00  3.64300000E-01
  8.23600000E+03  1.23500000E+03  2.80800000E+02  7.92700000E+01  2.55900000E+01
  8.99700000E+00  3.31900000E+00  3.64300000E-01  9.05900000E-01  1.28500000E-01
  1.87100000E+01  4.13300000E+00  1.20000000E+00  3.82700000E-01  1.20900000E-01
  1.09700000E+00  3.18000000E-01  7.61000000E-01  3.38700000E+01  5.09500000E+00
  1.15900000E+00  3.25800000E-01  1.02700000E-01  1.40700000E+00  3.88000000E-01
  1.05700000E+00  3.38700000E+01  5.09500000E+00  1.15900000E+00  3.25800000E-01
  1.02700000E-01  1.40700000E+00  3.88000000E-01  1.05700000E+00
Contraction coefficients                   R   N=          94
  5.34980914E-04  4.13766310E-03  2.12509149E-02  8.25762988E-02  2.38413273E-01
  4.43431666E-01  3.55431909E-01 -8.70290176E-03 -1.98776985E-04 -1.54700349E-03
 -7.99256330E-03 -3.20255651E-02 -9.91102048E-02 -2.28292775E-01 -2.98182763E-01
  1.03700052E+00  1.00000000E+00  1.00000000E+00  3.98072123E-02  2.49002660E-01
  8.10479727E-01  1.00000000E+00  1.00000000E+00  1.00000000E+00  1.00000000E+00
  1.00000000E+00  5.34980914E-04  4.13766310E-03  2.12509149E-02  8.25762988E-02
  2.38413273E-01  4.43431666E-01  3.55431909E-01 -8.70290176E-03 -1.98776985E-04
 -1.54700349E-03 -7.99256330E-03 -3.20255651E-02 -9.91102048E-02 -2.28292775E-01
 -2.98182763E-01  1.03700052E+00  1.00000000E+00  1.00000000E+00  3.98072123E-02
  2.49002660E-01  8.10479727E-01  1.00000000E+00  1.00000000E+00  1.00000000E+00
  1.00000000E+00  1.00000000E+00  5.42430189E-04  4.19642790E-03  2.15409141E-02
  8.36149496E-02  2.39871619E-01  4.43751820E-01  3.53579696E-01 -9.17636608E-03
 -1.96392234E-04 -1.52595027E-03 -7.89044903E-03 -3.15148705E-02 -9.69100083E-02
 -2.20541526E-01 -2.96069113E-01  1.04050343E+00  1.00000000E+00  1.00000000E+00
  3.94263872E-02  2.44088985E-01  8.15492009E-01  1.00000000E+00  1.00000000E+00
  1.00000000E+00  1.00000000E+00  1.00000000E+00  2.54948632E-02  1.90362766E-01
  8.52162022E-01  1.00000000E+00  1.00000000E+00  1.00000000E+00  1.00000000E+00
  1.00000000E+00  2.54948632E-02  1.90362766E-01  8.52162022E-01  1.00000000E+00
  1.00000000E+00  1.00000000E+00  1.00000000E+00  1.00000000E+00
Coordinates of each shell                  R   N=         126
 -2.08378002E+00 -1.16157916E-03 -6.84578096E-02 -2.08378002E+00 -1.16157916E-03
 -6.84578096E-02 -2.08378002E+00 -1.16157916E-03 -6.84578096E-02 -2.08378002E+00
 -1.16157916E-03 -6.84578096E-02 -2.08378002E+00 -1.16157916E-03 -6.84578096E-02
 -2.08378002E+00 -1.16157916E-03 -6.84578096E-02 -2.08378002E+00 -1.16157916E-03
 -6.84578096E-02 -2.08378002E+00 -1.16157916E-03 -6.84578096E-02 -2.08378002E+00
 -1.16157916E-03 -6.84578096E-02 -2.08378002E+00 -1.16157916E-03 -6.84578096E-02
  2.57655636E+00 -1.42473254E-03  6.44638973E-03  2.57655636E+00 -1.42473254E-03
  6.44638973E-03  2.57655636E+00 -1.42473254E-03  6.44638973E-03  2.57655636E+00
 -1.42473254E-03  6.44638973E-03  2.57655636E+00 -1.42473254E-03  6.44638973E-03
  2.57655636E+00 -1.42473254E-03  6.44638973E-03  2.57655636E+00 -1.42473254E-03
  6.44638973E-03  2.57655636E+00 -1.42473254E-03  6.44638973E-03  2.57655636E+00
 -1.42473254E-03  6.44638973E-03  2.57655636E+00 -1.42473254E-03  6.44638973E-03
  3.99588075E-01 -1.31125918E-02  7.80766375E-03  3.99588075E-01 -1.31125918E-02
  7.80766375E-03  3.99588075E-01 -1.31125918E-02  7.80766375E-03  3.99588075E-01
 -1.31125918E-02  7.80766375E-03  3.99588075E-01 -1.31125918E-02  7.80766375E-03
  3.99588075E-01 -1.31125918E-02  7.80766375E-03  3.99588075E-01 -1.31125918E-02
  7.80766375E-03  3.99588075E-01 -1.31125918E-02  7.80766375E-03  3.99588075E-01
 -1.31125918E-02  7.80766375E-03  3.99588075E-01 -1.31125918E-02  7.80766375E-03
 -3.03648155E+00 -1.38136329E+00  2.00127287E-01 -3.03648155E+00 -1.38136329E+00
  2.00127287E-01 -3.03648155E+00 -1.38136329E+00  2.00127287E-01 -3.03648155E+00
 -1.38136329E+00  2.00127287E-01 -3.03648155E+00 -1.38136329E+00  2.00127287E-01
 -3.03648155E+00 -1.38136329E+00  2.00127287E-01 -2.81048131E+00  1.47814302E+00
  1.87106669E-01 -2.81048131E+00  1.47814302E+00  1.87106669E-01 -2.81048131E+00
  1.47814302E+00  1.87106669E-01 -2.81048131E+00  1.47814302E+00  1.87106669E-01
 -2.81048131E+00  1.47814302E+00  1.87106669E-01 -2.81048131E+00  1.47814302E+00
  1.87106669E-01
Alpha Orbital Energies                     R   N=         135
 -1.43625110E+01 -1.43046907E+01 -1.02385618E+01 -1.00317274E+00 -8.95634143E-01
 -6.45954586E-01 -6.17244146E-01 -4.18139133E-01 -3.63322801E-01 -3.42271978E-01
 -2.81514244E-01  1.06675260E-02  3.32490349E-02  8.27680158E-02  8.50291224E-02
  1.40771495E-01  2.46100411E-01  2.70365923E-01  2.86033003E-01  3.06388936E-01
  3.47475045E-01  4.17819789E-01  4.43612463E-01  4.61712427E-01  4.86759336E-01
  4.96834258E-01  5.49050511E-01  5.88614556E-01  6.21434428E-01  6.44759186E-01
  7.03410991E-01  7.16597707E-01  8.28046838E-01  8.71648813E-01  9.12535195E-01
  9.78123346E-01  1.07314770E+00  1.08474572E+00  1.10372510E+00  1.13666868E+00
  1.18085493E+00  1.26793098E+00  1.32807852E+00  1.33207745E+00  1.47212396E+00
  1.49598703E+00  1.50716490E+00  1.55057001E+00  1.67013312E+00  1.67479582E+00
  1.72923925E+00  1.73957981E+00  1.77924328E+00  1.84729691E+00  1.97031205E+00
  2.13030542E+00  2.25243123E+00  2.36899392E+00  2.43297640E+00  2.55593643E+00
  2.62578587E+00  2.63234939E+00  2.72882703E+00  2.79673404E+00  2.85631045E+00
  2.88161745E+00  2.89814771E+00  2.91531436E+00  2.98391158E+00  3.00926428E+00
  3.08321569E+00  3.18140449E+00  3.19773937E+00  3.26571196E+00  3.31227745E+00
  3.36820309E+00  3.41076205E+00  3.44676831E+00  3.55960897E+00  3.57566776E+00
  3.67362566E+00  3.72135703E+00  3.76036184E+00  3.90415501E+00  3.92977887E+00
  3.94004315E+00  3.98341988E+00  3.98686181E+00  4.00663220E+00  4.06346869E+00
  4.09351270E+00  4.20297879E+00  4.30138609E+00  4.40272560E+00  4.43271303E+00
  4.47596701E+00  4.51646801E+00  4.56110531E+00  4.58489338E+00  4.64448008E+00
  4.73819037E+00  4.79390635E+00  4.84317891E+00  4.87324953E+00  4.91069654E+00
  4.99270135E+00  5.07967937E+00  5.15428472E+00  5.18515479E+00  5.26502873E+00
  5.54682946E+00  5.61315966E+00  5.81538159E+00  5.90781277E+00  5.95164220E+00
  6.03632283E+00  6.13186157E+00  6.25126248E+00  6.31212779E+00  6.42951305E+00
  6.49278393E+00  6.54016585E+00  6.63836771E+00  7.01857291E+00  7.09403429E+00
  7.88701536E+00  7.98175918E+00  8.46495567E+00  1.02629919E+01  1.15790650E+01
  1.17196701E+01  1.21719288E+01  1.25487863E+01  2.12768454E+01  2.59227518E+01
Alpha MO coefficients                      R   N=       18225
  9.91171033E-01  3.97574663E-02  6.01160901E-02  2.00050700E-02 -1.75620895E-04
  6.39918217E-09 -1.14002011E-04  2.20203410E-04  1.29881543E-03  6.11143917E-03
 -3.18158304E-03 -1.07999530E-04  2.23281345E-03 -4.77115588E-03 -4.45555287E-03
 -6.42441369E-03  4.86872943E-05 -1.41673399E-04  4.02176358E-05  1.35906370E-02
  1.24956613E-02  1.24794252E-03  3.66159621E-04 -1.68773524E-03  2.05816942E-05
  2.02943489E-03  2.44477648E-04 -1.67664996E-03 -2.69339940E-03 -4.64919521E-04
 -3.46002881E-04  1.02132107E-04 -1.20621712E-04  2.63285633E-04  5.43550772E-05
 -1.49095962E-03 -2.33151326E-03  1.06965893E-03 -6.05312786E-03  6.57634640E-04
 -1.38629581E-05 -1.17003178E-04  3.19057586E-03  1.36668684E-04  5.91335368E-04
  2.08526874E-03 -3.70266401E-05  4.69611126E-04 -6.58317052E-04  4.64265746E-04
  4.54046135E-04 -1.38418350E-05  1.03306359E-04  1.83445774E-06 -1.79813045E-03
  2.96751774E-03  3.07651871E-03 -6.49696217E-05 -2.15685801E-04 -4.67670075E-06
  1.67124685E-03 -3.92100954E-05 -2.29841696E-04  3.56693986E-05  1.46053366E-05
 -1.72193709E-04 -3.48794834E-05 -1.73219291E-05 -1.08101192E-04 -5.19241203E-07
 -2.85817607E-03 -5.82859664E-03 -7.27963793E-04  3.19024507E-03  6.68053571E-05
 -8.28746621E-05 -8.71615544E-05  1.57641108E-02  3.75030744E-04  8.02869381E-04
  1.62537289E-03  1.27791589E-04 -6.52211136E-04  9.61839198E-04  2.30728398E-04
  4.42148933E-04  5.28658432E-05 -9.34886910E-05  2.13797649E-06 -1.36802402E-02
  1.19236294E-04 -6.67798090E-05 -1.87632582E-04 -1.04702879E-03  1.22312329E-05
  6.92306054E-03 -1.92319252E-04 -3.17385401E-04 -9.88532491E-04 -6.46279143E-05
  3.31915206E-04 -1.21346052E-03 -9.64563733E-05 -8.05931430E-05 -5.15906644E-06
 -2.38045862E-03 -2.33471817E-02 -1.70138615E-03 -1.45460116E-03 -1.78644684E-03
  3.47480742E-04 -5.80301324E-03 -9.70908594E-03  1.65182988E-03 -1.12967683E-03
 -1.81266216E-03 -1.69441397E-04 -1.19073315E-03  2.31532780E-04  2.79366540E-04
 -2.89830795E-03 -2.27975146E-02 -1.75948354E-03 -1.25927337E-03  2.12617880E-03
  3.90364376E-04 -4.14032406E-03  1.04997796E-02  1.59029933E-03 -9.78165648E-04
 -2.31907891E-03 -3.90378632E-04  9.63565188E-04  1.91123415E-04 -3.13082565E-04
 -1.26219335E-03 -3.18825985E-03  3.21478969E-03 -2.43356623E-03 -7.24406231E-04
 -3.05829235E-05 -1.54899969E-04 -2.24585101E-04  9.09004434E-05  7.67509577E-04
 -1.38425467E-03 -5.28986408E-04  1.16611654E-04 -3.47141997E-04  9.05291983E-04
  1.07880130E-03  4.20157431E-05 -6.75589619E-05  2.37056955E-07 -9.05733990E-04
  5.43549734E-03  4.33260906E-03 -1.11039710E-04 -4.27312631E-04 -5.93886016E-05
 -3.69681649E-03 -9.23566314E-05 -2.89287778E-04 -5.53925247E-04 -1.09929227E-05
 -3.10880136E-04 -1.56186668E-04 -1.85371164E-05 -1.99038032E-04 -4.26555618E-06
  9.87251510E-01  3.12100234E-02  5.54576906E-02  8.32716026E-03 -1.53060268E-03
  1.32265362E-05 -4.40545346E-05 -1.72054509E-02 -2.30281971E-04  3.74831175E-04
 -3.85655806E-03 -5.57907862E-05  7.67666538E-05 -3.18903998E-03 -6.30852154E-03
 -6.29180391E-03  2.78168033E-05 -1.28023828E-05 -1.15169035E-06  4.92398495E-03
 -6.72599696E-04 -6.97135414E-04  1.20024774E-04 -1.88180705E-04  3.47627218E-06
 -5.42659361E-04  5.06245186E-05 -1.22224742E-04  4.32155768E-04 -3.09421111E-05
  2.13876779E-05  4.17920426E-04  2.17487617E-05 -5.50399088E-05 -8.10349729E-07
 -4.93719904E-03 -9.97652396E-03 -2.79774462E-03 -1.84186482E-03 -1.05742256E-03
 -1.44050411E-05 -4.15684542E-05 -1.49416790E-02  1.05085554E-04  3.13124897E-05
 -5.39708007E-04  5.77391770E-05 -6.82711110E-05 -1.13662201E-03  4.02539269E-04
  3.56909410E-04 -3.89155170E-05  6.30211353E-05  5.03080036E-06 -1.89097034E-02
  4.95097100E-04  7.08435354E-04 -9.15154104E-05 -2.41435096E-04 -1.62330569E-05
 -1.26080166E-02 -3.13326044E-05 -5.22873730E-05  8.12519913E-04  1.36739245E-05
 -2.23525519E-04  7.03754702E-04 -5.50019376E-06 -1.98469718E-05 -1.60863947E-06
 -4.73106625E-04 -8.62679686E-04 -1.25718751E-04 -1.29798865E-04 -5.37959248E-05
  4.47017312E-05 -2.47369473E-04 -3.15740430E-04  3.23525490E-05  4.89261989E-05
 -3.87254758E-04 -4.41844936E-04  2.60934500E-05  7.13993931E-05 -1.08501837E-05
 -6.29398674E-04 -2.89166258E-05  1.29579168E-04 -1.10222963E-06 -6.10045261E-06
  5.41351766E-05  2.05762473E-04  4.03165902E-04  5.50550607E-05  9.41806631E-06
 -4.57701119E-04 -5.82558367E-04 -1.30962605E-04  5.44086338E-05  9.76238056E-08
 -2.79083087E-03 -5.27876011E-03 -3.34178716E-03 -1.14550647E-02  2.51237210E-03
 -5.80861118E-05  3.43309765E-04 -1.64636771E-02  4.30551398E-04 -1.81713580E-03
 -6.08728050E-03 -1.81153529E-04 -3.54922571E-04  3.89267505E-04  3.16559550E-04
 -2.22025582E-04  3.39816381E-05 -5.64096096E-05  2.87572480E-06 -1.04702732E-02
 -2.63014922E-03 -2.28698414E-03 -3.19006981E-04 -1.04471080E-04  1.27855350E-05
  3.68576772E-03 -1.22450125E-04  6.77641513E-04  1.89997225E-03 -4.09683551E-05
  2.44091313E-04  2.23762817E-03 -5.64866783E-05  4.15189077E-04 -1.00008809E-05
 -6.75392948E-03 -1.24581185E-02 -4.69939737E-03 -7.15871517E-03 -3.75828010E-03
 -3.78735633E-05  5.45377942E-05  2.59582126E-02  2.22594309E-04 -3.03399023E-04
  5.08764662E-03 -6.32095876E-07 -8.93951709E-05  8.33411636E-04  4.02893374E-04
  4.14789661E-04  1.35053084E-05 -2.85972829E-05 -1.95634701E-06 -9.53628058E-03
 -3.34121347E-03 -3.38950826E-03 -2.20565137E-05  6.95918544E-05  4.95049635E-06
 -7.07257871E-03 -6.50883938E-05  1.05369316E-04 -2.92283139E-03 -5.95180175E-05
  7.59645840E-05 -2.91326371E-03 -2.97153977E-05  4.85754455E-05  9.67981157E-07
  9.93172309E-01  4.54461893E-02  5.44715463E-02  1.63811749E-02 -1.79819128E-03
  7.86676284E-06  3.51819113E-05  8.88977080E-03  2.28792256E-04 -6.41116593E-04
 -3.21491609E-03  1.02458452E-04  3.40679865E-05 -6.49592685E-03 -9.58761064E-03
 -9.68272614E-03 -1.92984926E-05  3.66639803E-05  2.56008936E-06  1.95869778E-02
 -5.67841160E-03 -5.56115164E-03 -1.43089772E-05  4.90278241E-04 -2.08107837E-05
 -1.07259337E-03 -2.51746073E-05  1.99748022E-04 -6.39056015E-04  9.60333906E-05
 -8.09264912E-05 -6.43907860E-04 -4.04407682E-06  7.36771086E-05  9.24992284E-06
 -4.74674141E-04  3.81241239E-03 -1.41395009E-03 -4.17421973E-04 -2.45423728E-04
  4.12835912E-05  2.82074223E-04  1.20746072E-03 -1.61610248E-04 -2.68928538E-04
 -2.43013841E-04 -2.79377818E-04 -3.69573012E-04  7.03184948E-05 -1.52194445E-05
 -8.38876959E-04  3.91754082E-03 -1.36182358E-03 -2.99040853E-04  3.88383509E-04
  6.16648443E-05  3.04743048E-04 -9.82031830E-04 -1.06398268E-04 -1.67147849E-04
 -5.25363587E-04 -4.93628499E-04  2.76080977E-04  2.74272767E-05 -3.56833608E-06
 -3.50868177E-02  4.16816154E-01  1.19770340E-01  1.98408985E-01  1.78594238E-02
  6.84636228E-03  1.87159360E-02  2.34780411E-02  2.34137979E-03  1.97005639E-02
  5.81900995E-03 -5.75730858E-04  6.74966398E-03  9.78382578E-03  5.12314806E-03
 -2.59238699E-03  2.82151175E-04 -3.88586806E-04  1.37836214E-04  1.65010944E-02
  6.04778759E-03 -6.07183481E-03  1.09084383E-03 -1.22171774E-03 -1.89373960E-04
  6.94046809E-03  7.04496231E-04  1.09204272E-04  6.71339314E-05  4.07483770E-04
  9.26030249E-04 -4.01794913E-05  3.23502109E-04  7.72727947E-04  7.46152364E-05
 -7.99502403E-03  7.33199587E-02  2.34709596E-02  2.51127185E-03 -2.88246277E-02
  5.75264431E-05 -1.18029318E-04 -1.14441163E-02  1.29075941E-04  6.91999078E-04
  2.92901134E-03 -3.42799908E-05  6.70431080E-04  3.39657016E-03  4.17876993E-05
 -4.18361913E-05  1.43530382E-05  3.55000787E-05  5.53343730E-07 -3.71680235E-03
  2.09283715E-03  1.85917114E-03  8.24803912E-05 -4.36865229E-04  3.98595613E-06
 -3.04551906E-03 -4.67402282E-05 -1.91744489E-04 -2.56629525E-03 -7.69902863E-05
 -5.20563786E-05 -2.46954954E-03 -1.99680494E-05 -8.92017448E-05 -8.53810125E-06
 -3.03652427E-02  1.96564389E-01  5.43681722E-02  4.90171792E-02 -5.54462995E-02
  1.43832293E-03 -6.94325896E-04 -2.67361733E-02  1.81775942E-03  9.82459742E-04
  7.77892403E-03  5.52334184E-04 -6.88099703E-04  2.35756788E-02 -4.37679016E-03
 -4.89128251E-03 -1.71870746E-04  1.41004082E-04  7.74602346E-06  2.78816546E-04
 -6.49162773E-03 -7.83866110E-03 -3.53781440E-04 -1.45921355E-03  2.31043102E-05
 -8.59431778E-03 -1.58134324E-04 -3.65842176E-04 -1.47677535E-03  4.09515722E-04
 -2.27884879E-04 -1.20927642E-03 -1.04693860E-04 -1.03345812E-04 -4.70934761E-05
  8.87395091E-02  5.49636000E-02  4.12934293E-03  7.13024343E-03  1.03249192E-02
 -1.72339637E-03  3.54259264E-03  1.69170819E-03  3.12948819E-04  4.69760371E-04
  2.32358611E-03 -9.58967044E-04  2.07294585E-03 -4.17755021E-04 -7.63126437E-04
  9.67292857E-02  6.58796937E-02  4.59863572E-03  6.48844754E-03 -1.21855193E-02
 -1.78262157E-03  5.00932190E-03 -3.89991697E-03 -6.47397801E-05  1.49368547E-04
  2.77949632E-03 -1.20285949E-03 -2.13416414E-03 -3.48787908E-04  7.94173273E-04
  9.95687466E-03 -1.32624740E-01 -4.08660180E-02 -9.17375316E-02  2.34311094E-02
 -2.34272636E-03 -7.84811750E-03  1.61006004E-02 -1.71643697E-03 -1.00080794E-02
 -1.50902605E-03 -1.89849225E-03 -4.32228910E-03 -7.63903935E-04 -2.91801543E-03
 -4.19819082E-05 -8.54914706E-05  3.97029768E-04 -3.32719381E-05 -1.46251380E-02
 -6.16644896E-03  1.34307423E-03 -1.20070272E-03  1.18902001E-03 -6.49698739E-05
  4.70491615E-04 -1.72823043E-04  4.40099219E-04  2.56614557E-03 -1.24001022E-06
 -2.82808965E-04  2.17747360E-03 -3.35939074E-05  5.93010109E-06 -3.29782326E-05
 -3.49039580E-02  3.73669326E-01  1.05745827E-01  1.73460324E-01 -1.25302468E-01
 -6.89197179E-04  1.07525190E-04 -9.03465180E-02 -5.60665360E-04 -3.36131691E-04
 -2.97530936E-02 -2.20693535E-04 -4.82591383E-04  1.62622835E-02 -2.73548672E-03
 -3.02096299E-03  1.12476898E-04 -6.85732330E-05 -4.68549621E-06  3.53277183E-03
 -7.93850709E-03 -8.83703119E-03  1.18986948E-04  1.51543355E-04  8.01842355E-06
 -1.52562684E-02 -6.42781641E-06  1.15934881E-04 -3.10406647E-03 -8.35875377E-05
  1.00115621E-04 -2.90945740E-03 -3.91495321E-06  5.45315948E-05  4.40481540E-06
 -3.22427927E-02  2.48449132E-01  6.51152394E-02  6.77071738E-02  1.65462739E-01
  4.62050846E-04 -4.09746918E-04  8.70432722E-02  7.76515381E-04 -1.03719180E-03
  7.12104461E-03  2.86116027E-04  8.32099913E-04  2.26083277E-02 -5.62184307E-03
 -6.14086095E-03  2.12687699E-04  9.82894285E-05  5.56942726E-06  1.48016962E-03
 -7.03514765E-03 -8.42599862E-03 -4.31459883E-05  1.02049948E-03 -6.69159222E-05
  2.37252572E-02  8.02934553E-06  1.88145093E-04  2.71876093E-03  1.43367521E-04
 -2.79879983E-04  2.44738732E-03  2.33276771E-05  1.86161506E-05  3.03855242E-05
 -3.81734875E-02 -1.76882380E-02 -4.21675323E-03 -2.86455044E-03 -4.14876636E-03
  5.84213307E-04  2.01633594E-03  2.05013682E-03 -5.99972287E-04 -3.18727852E-04
 -1.11360900E-03 -1.69703335E-04 -1.00652176E-03  1.43367163E-04  1.46267267E-04
 -4.01409872E-02 -1.72805911E-02 -3.24118720E-03 -2.31019996E-03  4.79226493E-03
  6.25833620E-04  2.48937590E-03 -1.60331011E-03 -4.89951080E-04 -4.89842903E-05
 -1.61870987E-03 -5.30597932E-04  8.64646637E-04  9.44260150E-05 -1.61494634E-04
  5.24360334E-03 -4.72985174E-02 -2.27998647E-02 -2.64335373E-04  2.72751322E-01
  4.10813530E-02 -2.53051099E-02  2.05540805E-01  2.85475488E-02 -2.28560319E-02
  1.25364514E-01  1.28654731E-02 -1.15507061E-02  8.74387883E-03 -8.55980342E-03
 -2.49207160E-03 -1.42159507E-03  2.58950381E-03  6.08205711E-04 -1.13511578E-02
 -1.29045173E-02 -1.01092644E-02  2.51017530E-03  2.28959569E-03 -1.24670560E-04
  2.88283984E-02  3.57587361E-03 -8.67812298E-04  9.07390871E-03  2.07939406E-03
 -1.23520952E-03  7.65850559E-03  1.38390095E-03 -1.44405021E-04  2.25796479E-04
  9.43527292E-03 -1.09603201E-01 -3.18701038E-02 -7.84114824E-02  1.74546526E-02
  2.82835746E-03 -2.34528534E-03 -9.71900517E-05  2.85701112E-03 -2.10046813E-03
  2.44526618E-03  1.06402743E-03 -2.32194922E-03 -2.01935588E-03  2.16900474E-04
  2.48129498E-04 -2.63339865E-04  1.23002531E-04  1.86871733E-06  5.60784566E-03
 -2.89493697E-03 -2.47018287E-03  5.41135451E-06  1.32878867E-04 -8.61264711E-06
  2.15832661E-03  3.89771047E-05 -6.91138434E-05 -1.92313010E-04 -3.91627060E-06
  9.49172923E-05 -1.43485858E-04  1.19954462E-05 -3.51306385E-05  3.46310888E-06
 -1.48507925E-02  2.12315780E-01  6.54139418E-02  6.52824229E-02 -1.75031494E-01
  9.38246967E-03 -9.65953330E-03 -1.74236838E-01  1.02130152E-02 -9.56595279E-03
 -1.71975326E-02  3.41103343E-03  3.59649114E-04  1.47117960E-02 -3.82814681E-04
 -4.86146894E-04 -1.35544828E-03  1.64139024E-03 -2.72184513E-05  4.16214186E-02
  1.31959269E-03 -6.80695897E-04 -1.80533063E-03  2.13086974E-03  4.98995092E-05
 -3.72010336E-02  9.52851006E-05 -4.06176239E-05  3.23674817E-06  1.37561412E-03
 -2.09508247E-03  6.89180389E-04 -1.99314338E-06 -8.15866778E-05 -7.68555823E-06
 -1.33756059E-01 -1.60326671E-01 -3.26535713E-02 -4.61611445E-03 -1.59214785E-02
  2.48134221E-03 -1.94710157E-03 -1.96026242E-02  1.91470094E-03  7.29275485E-04
 -5.44894957E-03  1.10901243E-03 -3.75439110E-03  6.10686639E-04  1.00951813E-03
 -7.09987299E-02 -7.53347945E-02 -1.63533507E-02  3.10982654E-03  1.10500649E-02
  1.01910295E-03  9.65057722E-03  1.01089449E-02 -5.73379372E-04  2.78358986E-03
 -4.30265333E-03  9.93878723E-04  1.45172460E-04 -4.96990241E-05 -5.20719545E-04
 -8.76945094E-04 -4.44682551E-03  1.57238462E-03 -1.50949956E-02 -3.86156468E-02
  2.91517640E-01  4.74994196E-03 -2.95106729E-02  2.09979630E-01  4.69969004E-03
 -2.39406474E-02  1.00772861E-01  2.63993168E-03 -2.78153476E-03  2.82466532E-03
  5.29762613E-04 -5.24704092E-03 -1.81812877E-04  3.94350719E-03  6.16087461E-03
  2.77353119E-03  2.97871345E-03  1.82572419E-02 -7.36138425E-04 -3.61484291E-04
 -4.40006288E-03  2.45353975E-02 -2.48201376E-07 -1.03854795E-03  1.39067544E-02
  2.84597608E-04 -1.17006795E-03  9.50164935E-03 -1.05648354E-04  8.99168554E-04
 -1.50204812E-03  2.00481936E-02  5.79929508E-03  1.58906487E-02 -2.63979179E-03
  2.02652682E-02  5.78916256E-04  1.25506164E-03  2.25668381E-02  4.93977765E-04
 -8.35618243E-05  8.02825077E-03  6.54033229E-04  2.83063441E-04 -6.43900350E-05
 -5.42091059E-05 -1.85857422E-03 -2.02232485E-05  7.91472965E-06 -1.57722948E-03
  7.26148864E-04  5.50447887E-04 -1.27354715E-03 -2.60516997E-05 -2.34651620E-05
 -4.45079659E-04 -4.26357943E-05  2.52063859E-05 -5.31316986E-05 -3.62970430E-05
 -3.92016226E-05  4.01826420E-07 -6.30889162E-05  1.21956103E-05 -1.62850964E-05
  2.81814470E-03 -4.26138230E-02 -1.32380754E-02 -1.36796437E-02  3.25261105E-02
  7.01867740E-02  2.17418943E-03  3.58662799E-02  7.46888967E-02  2.15833883E-03
  2.06686065E-03  2.68335024E-02 -1.88009132E-04 -3.06415662E-03  2.03965797E-04
 -1.15279399E-04 -8.07192220E-03 -3.53412133E-04 -1.08706787E-04 -1.05781515E-02
  2.37043759E-04  3.66267340E-04 -1.26851808E-02 -5.21548024E-04  3.58088871E-04
  7.04175530E-03  8.42811911E-04  4.90384551E-05 -2.47774845E-04  9.99005112E-03
  5.64265665E-04 -1.62484510E-04 -1.98289522E-06  3.64262165E-05 -1.22066290E-04
 -1.40555792E-01 -2.12013043E-01 -4.44338274E-02 -1.34362118E-02 -1.00179881E-02
  3.15867658E-03 -2.80668956E-02 -2.25182578E-02  7.09085472E-03 -4.09761055E-03
 -2.58058117E-03  5.73420740E-04 -5.21826350E-03  1.12313443E-03  1.13031867E-03
  1.81094137E-01  2.55546892E-01  5.20187971E-02  1.16460592E-02 -1.75598890E-02
 -3.87412662E-03  2.13966976E-02 -2.99726152E-02 -6.76902870E-03  1.56561048E-03
  5.75229014E-03 -1.13464646E-03 -5.61910132E-03 -9.72260429E-04  1.59997340E-03
  4.01406253E-04 -4.20210782E-02 -1.58699437E-02 -3.19877937E-02  1.92461489E-02
 -1.41379748E-03  2.35905707E-01  1.86176815E-02 -1.25060290E-03  2.50623013E-01
  2.33540438E-02 -5.06214081E-04  2.14422589E-01 -1.14779261E-03 -1.23785308E-03
  8.32058461E-04  5.45685492E-05  5.34720922E-03  1.57579986E-04 -8.48783889E-03
 -8.12713800E-03 -5.07396502E-04 -2.68272719E-04  1.47844738E-02 -1.88569831E-04
  1.79289259E-03 -4.36078799E-05  9.50038891E-03  4.77323352E-04 -1.22769590E-04
  1.06435305E-02  2.68815349E-04 -4.64244376E-05  7.58947678E-03  2.05250934E-04
  2.14156479E-04 -1.42055817E-02 -4.52802550E-03 -7.17123370E-03 -5.64797055E-03
 -4.96101326E-04  1.33700291E-01 -5.89806237E-03 -4.76536374E-04  1.42459579E-01
 -6.71287225E-03 -3.73891001E-04  8.71179620E-02  1.21595270E-04 -1.98927331E-04
 -1.56871947E-04  4.25011606E-05 -8.98240325E-03 -2.86561409E-05  8.95998233E-05
 -8.46014799E-04 -1.04859775E-03  8.49644806E-05 -1.25021505E-02 -7.44896478E-05
 -3.11450613E-04 -3.52361677E-05  3.61943587E-03 -2.64782955E-04 -5.17443210E-05
  4.44178073E-03 -1.11492082E-04 -1.59763523E-05  1.91450676E-03 -1.04950653E-05
 -1.24930473E-03  2.35842885E-02  5.79036596E-03  9.81321623E-03 -9.76676339E-03
 -7.41697303E-04  2.10468396E-01 -1.06392870E-02 -9.27559101E-04  2.10148430E-01
 -5.75357740E-03 -3.61270277E-04  1.22800797E-01  7.93139144E-04  9.63245566E-05
 -7.92170585E-04  4.69569017E-07 -2.97554462E-03  1.79179447E-04  3.29848765E-04
 -2.12042139E-03 -1.53948592E-03 -2.31783676E-05 -6.77780234E-03  6.74879171E-04