CrystalExplorer Job                                                     
SP        RHF                                                         3-21G               
Number of atoms                            I                9
Info1-9                                    I   N=           9
          15          15           0           0           0         110
           1           1           2
Full Title                                 C   N=           2
CrystalExplorer Job     
Route                                      C   N=           3
#P HF/3-21G 6d 10f NoSymm FChk      
Charge                                     I                0
Multiplicity                               I                1
Number of electrons                        I               26
Number of alpha electrons                  I               13
Number of beta electrons                   I               13
Number of basis functions                  I               39
Number of independent functions            I               39
Number of point charges in /Mol/           I                0
Number of translation vectors              I                0
Atomic numbers                             I   N=           9
           6           6           1           1           8           1
           1           1           1
Nuclear charges                            R   N=           9
  6.00000000E+00  6.00000000E+00  1.00000000E+00  1.00000000E+00  8.00000000E+00
  1.00000000E+00  1.00000000E+00  1.00000000E+00  1.00000000E+00
Current cartesian coordinates              R   N=          27
 -3.95593379E-01  3.88462119E+00  2.22916819E+00  1.99223055E+00  3.60371151E+00
  6.83083085E-01 -5.32046724E-01  5.48828059E+00  3.49332883E+00 -1.93966782E+00
  4.10596860E+00  9.04322772E-01 -8.24149251E-01  1.75438773E+00  3.81184595E+00
  1.90477969E+00  2.03178629E+00 -6.24533700E-01  3.55948436E+00  3.18351768E+00
  1.93031934E+00  2.50633054E+00  5.26303279E+00 -3.99025122E-01 -1.05741138E+00
  3.95224882E-01  2.56720240E+00
Number of symbols in /Mol/                 I                0
Force Field                                I                0
Atom Types                                 C   N=           9
                                                            
                                                
Int Atom Types                             I   N=           9
           0           0           0           0           0           0
           0           0           0
MM charges                                 R   N=           9
  0.00000000E+00  0.00000000E+00  0.00000000E+00  0.00000000E+00  0.00000000E+00
  0.00000000E+00  0.00000000E+00  0.00000000E+00  0.00000000E+00
Integer atomic weights                     I   N=           9
          12          12           1           1          16           1
           1           1           1
Real atomic weights                        R   N=           9
  1.20000000E+01  1.20000000E+01  1.00782504E+00  1.00782504E+00  1.59949146E+01
  1.00782504E+00  1.00782504E+00  1.00782504E+00  1.00782504E+00
Atom fragment info                         I   N=           9
           0           0           0           0           0           0
           0           0           0
Atom residue num                           I   N=           9
           0           0           0           0           0           0
           0           0           0
Nuclear spins                              I   N=           9
           0           0           1           1           0           1
           1           1           1
Nuclear ZEff                               R   N=           9
 -3.60000000E+00 -3.60000000E+00 -1.00000000E+00 -1.00000000E+00 -5.60000000E+00
 -1.00000000E+00 -1.00000000E+00 -1.00000000E+00 -1.00000000E+00
Nuclear ZNuc                               R   N=           9
  6.00000000E+00  6.00000000E+00  1.00000000E+00  1.00000000E+00  8.00000000E+00
  1.00000000E+00  1.00000000E+00  1.00000000E+00  1.00000000E+00
Nuclear QMom                               R   N=           9
  0.00000000E+00  0.00000000E+00  0.00000000E+00  0.00000000E+00  0.00000000E+00
  0.00000000E+00  0.00000000E+00  0.00000000E+00  0.00000000E+00
Nuclear GFac                               R   N=           9
  0.00000000E+00  0.00000000E+00  2.79284600E+00  2.79284600E+00  0.00000000E+00
  2.79284600E+00  2.79284600E+00  2.79284600E+00  2.79284600E+00
MicOpt                                     I   N=           9
          -1          -1          -1          -1          -1          -1
          -1          -1          -1
Number of residues                         I                0
Number of secondary structures             I                0
Number of contracted shells                I               21
Number of primitive shells                 I               36
Pure/Cartesian d shells                    I                1
Pure/Cartesian f shells                    I                1
Highest angular momentum                   I                1
Largest degree of contraction              I                3
Shell types                                I   N=          21
           0          -1          -1           0          -1          -1
           0           0           0           0           0          -1
          -1           0           0           0           0           0
           0           0           0
Number of primitives per shell             I   N=          21
           3           2           1           3           2           1
           2           1           2           1           3           2
           1           2           1           2           1           2
           1           2           1
Shell to atom map                          I   N=          21
           1           1           1           2           2           2
           3           3           4           4           5           5
           5           6           6           7           7           8
           8           9           9
Primitive exponents                        R   N=          36
  1.72256000E+02  2.59109000E+01  5.53335000E+00  3.66498000E+00  7.70545000E-01
  1.95857000E-01  1.72256000E+02  2.59109000E+01  5.53335000E+00  3.66498000E+00
  7.70545000E-01  1.95857000E-01  5.44717800E+00  8.24547240E-01  1.83191580E-01
  5.44717800E+00  8.24547240E-01  1.83191580E-01  3.22037000E+02  4.84308000E+01
  1.04206000E+01  7.40294000E+00  1.57620000E+00  3.73684000E-01  5.44717800E+00
  8.24547240E-01  1.83191580E-01  5.44717800E+00  8.24547240E-01  1.83191580E-01
  5.44717800E+00  8.24547240E-01  1.83191580E-01  5.44717800E+00  8.24547240E-01
  1.83191580E-01
Contraction coefficients                   R   N=          36
  6.17669074E-02  3.58794043E-01  7.00713084E-01 -3.95895162E-01  1.21583436E+00
  1.00000000E+00  6.17669074E-02  3.58794043E-01  7.00713084E-01 -3.95895162E-01
  1.21583436E+00  1.00000000E+00  1.56284979E-01  9.04690877E-01  1.00000000E+00
  1.56284979E-01  9.04690877E-01  1.00000000E+00  5.92393934E-02  3.51499961E-01
  7.07657921E-01 -4.04453583E-01  1.22156176E+00  1.00000000E+00  1.56284979E-01
  9.04690877E-01  1.00000000E+00  1.56284979E-01  9.04690877E-01  1.00000000E+00
  1.56284979E-01  9.04690877E-01  1.00000000E+00  1.56284979E-01  9.04690877E-01
  1.00000000E+00
P(S=P) Contraction coefficients            R   N=          36
  0.00000000E+00  0.00000000E+00  0.00000000E+00  2.36459947E-01  8.60618806E-01
  1.00000000E+00  0.00000000E+00  0.00000000E+00  0.00000000E+00  2.36459947E-01
  8.60618806E-01  1.00000000E+00  0.00000000E+00  0.00000000E+00  0.00000000E+00
  0.00000000E+00  0.00000000E+00  0.00000000E+00  0.00000000E+00  0.00000000E+00
  0.00000000E+00  2.44586107E-01  8.53955373E-01  1.00000000E+00  0.00000000E+00
  0.00000000E+00  0.00000000E+00  0.00000000E+00  0.00000000E+00  0.00000000E+00
  0.00000000E+00  0.00000000E+00  0.00000000E+00  0.00000000E+00  0.00000000E+00
  0.00000000E+00
Coordinates of each shell                  R   N=          63
 -3.95593379E-01  3.88462119E+00  2.22916819E+00 -3.95593379E-01  3.88462119E+00
  2.22916819E+00 -3.95593379E-01  3.88462119E+00  2.22916819E+00  1.99223055E+00
  3.60371151E+00  6.83083085E-01  1.99223055E+00  3.60371151E+00  6.83083085E-01
  1.99223055E+00  3.60371151E+00  6.83083085E-01 -5.32046724E-01  5.48828059E+00
  3.49332883E+00 -5.32046724E-01  5.48828059E+00  3.49332883E+00 -1.93966782E+00
  4.10596860E+00  9.04322772E-01 -1.93966782E+00  4.10596860E+00  9.04322772E-01
 -8.24149251E-01  1.75438773E+00  3.81184595E+00 -8.24149251E-01  1.75438773E+00
  3.81184595E+00 -8.24149251E-01  1.75438773E+00  3.81184595E+00  1.90477969E+00
  2.03178629E+00 -6.24533700E-01  1.90477969E+00  2.03178629E+00 -6.24533700E-01
  3.55948436E+00  3.18351768E+00  1.93031934E+00  3.55948436E+00  3.18351768E+00
  1.93031934E+00  2.50633054E+00  5.26303279E+00 -3.99025122E-01  2.50633054E+00
  5.26303279E+00 -3.99025122E-01 -1.05741138E+00  3.95224882E-01  2.56720240E+00
 -1.05741138E+00  3.95224882E-01  2.56720240E+00
Constraint Structure                       R   N=          27
 -3.95593379E-01  3.88462119E+00  2.22916819E+00  1.99223055E+00  3.60371151E+00
  6.83083085E-01 -5.32046724E-01  5.48828059E+00  3.49332883E+00 -1.93966782E+00
  4.10596860E+00  9.04322772E-01 -8.24149251E-01  1.75438773E+00  3.81184595E+00
  1.90477969E+00  2.03178629E+00 -6.24533700E-01  3.55948436E+00  3.18351768E+00
  1.93031934E+00  2.50633054E+00  5.26303279E+00 -3.99025122E-01 -1.05741138E+00
  3.95224882E-01  2.56720240E+00
Num ILSW                                   I              100
ILSW                                       I   N=         100
           0           1           0           0           2           0
           0           0           3           0           0          -1
           0           0           0           1           0           0
           0           0           0           0           0           0
           1           1           0           0           0           0
           0           0      100000           0          -1           0
           0           0           0           0           0           0
           0           0           0           1           0           0
           0           0           1           0           0           0
           0           0           4          41           0           0
           0           0           0           0           0           0
           0           0           0           9           0           0
           0           0           0           0           0           0
           0           0           0           0           0           0
           0           0           0           0           0           0
           0           0           0           0           0           0
           0           0           0           0
Num RLSW                                   I               41
RLSW                                       R   N=          41
  1.00000000E+00  1.00000000E+00  1.00000000E+00  1.00000000E+00  1.00000000E+00
  0.00000000E+00  0.00000000E+00  1.00000000E+00  0.00000000E+00  0.00000000E+00
  0.00000000E+00  0.00000000E+00  1.00000000E+00  0.00000000E+00  0.00000000E+00
  0.00000000E+00  0.00000000E+00  1.00000000E+00  0.00000000E+00  0.00000000E+00
  0.00000000E+00  0.00000000E+00  1.00000000E+00  0.00000000E+00  0.00000000E+00
  0.00000000E+00  0.00000000E+00  1.00000000E+00  0.00000000E+00  0.00000000E+00
  0.00000000E+00  0.00000000E+00  1.00000000E+00  0.00000000E+00  0.00000000E+00
  0.00000000E+00  0.00000000E+00  0.00000000E+00  1.00000000E+00  1.00000000E+00
  0.00000000E+00
MxBond                                     I                4
NBond                                      I   N=           9
           4           4           1           1           2           1
           1           1           1
IBond                                      I   N=          36
           2           3           4           5           1           6
           7           8           1           0           0           0
           1           0           0           0           1           9
           0           0           2           0           0           0
           2           0           0           0           2           0
           0           0           5           0           0           0
RBond                                      R   N=          36
  1.00000000E+00  1.00000000E+00  1.00000000E+00  1.00000000E+00  1.00000000E+00
  1.00000000E+00  1.00000000E+00  1.00000000E+00  1.00000000E+00  0.00000000E+00
  0.00000000E+00  0.00000000E+00  1.00000000E+00  0.00000000E+00  0.00000000E+00
  0.00000000E+00  1.00000000E+00  1.00000000E+00  0.00000000E+00  0.00000000E+00
  1.00000000E+00  0.00000000E+00  0.00000000E+00  0.00000000E+00  1.00000000E+00
  0.00000000E+00  0.00000000E+00  0.00000000E+00  1.00000000E+00  0.00000000E+00
  0.00000000E+00  0.00000000E+00  1.00000000E+00  0.00000000E+00  0.00000000E+00
  0.00000000E+00
Virial Ratio                               R      2.001756668008154E+00
SCF Energy                                 R     -1.532163307512448E+02
Total Energy                               R     -1.532163307512448E+02
RMS Density                                R      5.771869789529852E-09
External E-field                           R   N=          35
  0.00000000E+00  0.00000000E+00  0.00000000E+00  0.00000000E+00  0.00000000E+00
  0.00000000E+00  0.00000000E+00  0.00000000E+00  0.00000000E+00  0.00000000E+00
  0.00000000E+00  0.00000000E+00  0.00000000E+00  0.00000000E+00  0.00000000E+00
  0.00000000E+00  0.00000000E+00  0.00000000E+00  0.00000000E+00  0.00000000E+00
  0.00000000E+00  0.00000000E+00  0.00000000E+00  0.00000000E+00  0.00000000E+00
  0.00000000E+00  0.00000000E+00  0.00000000E+00  0.00000000E+00  0.00000000E+00
  0.00000000E+00  0.00000000E+00  0.00000000E+00  0.00000000E+00  0.00000000E+00
IOpCl                                      I                0
IROHF                                      I                0
Alpha Orbital Energies                     R   N=          39
 -2.04420411E+01 -1.12154019E+01 -1.11590558E+01 -1.35079249E+00 -1.01665764E+00
 -8.50256811E-01 -6.81328362E-01 -6.20383211E-01 -5.96028388E-01 -5.38994185E-01
 -5.20445001E-01 -4.75634535E-01 -4.27873980E-01  2.53274286E-01  3.10438803E-01
  3.15003090E-01  3.39220017E-01  3.47866131E-01  3.75425811E-01  4.43418486E-01
  4.56243755E-01  9.05566358E-01  9.59257044E-01  9.89753285E-01  1.01514987E+00
  1.07732201E+00  1.14679599E+00  1.25014598E+00  1.30625454E+00  1.35305766E+00
  1.35839050E+00  1.37632425E+00  1.42016969E+00  1.88167642E+00  1.92898314E+00
  2.01885463E+00  2.12082729E+00  2.29338797E+00  3.40133859E+00
Alpha MO coefficients                      R   N=        1521
 -7.77752095E-04 -2.96382277E-03 -4.84012025E-04 -1.84141849E-03  1.06669864E-03
  1.91430732E-02 -7.61657665E-04 -7.38262274E-03  5.32854812E-03  1.24002558E-04
  2.24008915E-04  5.81998509E-04  1.92941806E-04 -4.30143874E-04 -3.44470907E-03
  8.60205130E-04  1.21628492E-03 -2.07986352E-03 -1.60341762E-03 -1.73680183E-03
 -1.41473308E-03 -1.48482844E-03  9.83468228E-01  9.77685124E-02  1.71723995E-04
  9.53465979E-04 -3.84123042E-03 -4.42477613E-02 -8.43658275E-04 -4.44321387E-03
  9.07573758E-03  6.20551708E-04 -9.46731512E-04  3.55715083E-04  5.25202685E-04
 -3.78435096E-04  4.65423318E-04  3.13593198E-03  4.99080247E-03  9.87534492E-01
  1.01008993E-01 -1.77024517E-04 -1.83226792E-04 -4.41695344E-04 -7.83831293E-02
 -3.99331954E-03 -7.81875108E-04  5.88876010E-03 -3.20156470E-03 -2.86750531E-03
  6.40554263E-05 -2.78308482E-05 -2.26412331E-04  2.11940247E-02 -1.08096973E-02
  1.13098100E-03  7.49439482E-03 -2.08002573E-04  1.43330649E-02  3.21286722E-04
  1.56772091E-02 -1.30789075E-04 -1.23582371E-04 -1.19261655E-05  2.68589953E-04
 -4.40786377E-04  7.03311947E-03  1.01473340E-03  2.43873710E-03 -9.86832743E-04
 -1.19245370E-03  8.26093817E-04 -1.50455391E-03  1.04130403E-03 -1.19182418E-03
  1.16132707E-03  1.30685458E-04  3.25611838E-03  2.51521945E-03 -1.99394905E-03
 -8.56259691E-05  1.81758071E-04 -7.56818219E-07  1.90423114E-02  9.79266644E-03
 -1.91335403E-03 -5.91691179E-03  9.87437048E-01  1.01650596E-01  2.52031570E-04
 -1.72985948E-04 -9.37090847E-05 -8.14298035E-02  2.41264490E-03  6.61725356E-04
 -2.68796123E-03 -1.08961887E-03  1.13328607E-03 -1.20882856E-03  1.16148393E-03
  1.15047681E-05 -2.20920170E-04 -1.97948044E-04 -7.65167404E-05  2.61562627E-04
 -6.53211542E-04 -2.37327853E-04 -3.70842941E-04  1.66031866E-06  1.44699777E-04
  1.46347066E-02  2.97371790E-04  1.49921721E-02 -6.90042095E-05  1.42245780E-02
 -5.56927264E-04  1.84997493E-04 -7.93922883E-02  8.45091118E-02 -1.05950432E-02
 -6.53918031E-02  3.93549123E-02  1.28832741E-01 -1.25437253E-04  3.64717229E-03
 -1.22605839E-02 -1.87722024E-02  1.89895422E-02 -1.57670834E-02 -3.78811945E-03
  1.28626914E-02  3.00600854E-02  2.20611091E-03 -1.20321015E-02  4.79376318E-03
  2.51561441E-02 -6.42834997E-04  2.53733084E-02 -7.20340390E-03 -2.19418635E-01
  2.03163012E-01  4.37912390E-03  1.06990460E-02 -7.88969859E-02  6.86816153E-01
  6.19123433E-03  2.27582636E-02 -1.01229631E-01  5.60693817E-03 -1.21133733E-03
  6.09406827E-03 -2.85728049E-03  6.02406406E-03 -8.13059958E-04  1.01372461E-01
  1.58820739E-02 -1.24161915E-01  1.25202103E-01  6.21484392E-02  2.79812217E-02
 -6.42766012E-02  3.23617220E-01  8.86126164E-03  1.17629211E-02 -3.69418388E-02
 -1.73255136E-01  1.69176871E-01 -3.67543494E-02  5.69163972E-03  2.12066825E-02
  4.64619584E-01  3.01799608E-03  3.89544279E-04 -5.96771288E-04  6.48011832E-02
  3.20502643E-03  6.97810898E-02 -6.51280518E-03  6.39507601E-02 -5.75308779E-02
  2.26071088E-02  5.59641748E-02 -9.45831783E-03 -2.42297039E-01  1.50967457E-02
  3.62244196E-02  6.81924886E-03  9.08315972E-02  5.50710779E-03  8.85529056E-02
 -2.17062690E-03  9.12506143E-02  3.51147636E-03 -4.88736355E-02 -3.22087832E-02
 -1.44307922E-01  1.36346129E-01 -9.21264601E-02  6.39583058E-02  3.82878224E-02
  5.08691287E-01 -2.67906369E-02  3.93931839E-02 -1.85708305E-02  1.13002493E-01
 -9.78723819E-02 -9.17245132E-02  2.75489779E-02  5.29870478E-02 -4.23884870E-01
 -1.73026623E-02  1.86241656E-02  7.10767264E-03  1.33167996E-01  4.53127681E-02
  1.18263821E-01  3.25310441E-02  4.10190812E-02 -3.65990533E-02 -3.91414807E-03
  1.45245375E-01 -9.98147083E-03 -1.75108444E-01 -7.03517518E-03  1.19496842E-01
 -1.30778529E-03 -9.66896224E-02 -3.59820772E-02 -9.02915904E-02 -3.12724561E-02
 -8.44337817E-02 -3.37978177E-02 -8.59194479E-02 -6.34023574E-02  1.66137855E-02
 -1.02635889E-02  9.46561043E-02  1.23126582E-02  2.44588916E-01 -7.40568284E-02
  7.00891994E-02  4.53896341E-02  2.07491628E-01 -1.34804834E-02  8.97565955E-03
  1.16774902E-01  1.53058487E-02  6.83601609E-02  7.97340000E-02  6.43448274E-02
  1.35612147E-03  5.03428876E-02  7.81670775E-02  4.04777798E-02 -1.53011309E-01
 -1.00318865E-01 -4.00211471E-02  3.65895708E-02  9.41037592E-02  2.05680995E-01
  1.58680091E-01  1.73736221E-01  9.34578841E-02  1.97765147E-01  1.50770017E-01
 -3.20839980E-02 -3.70545108E-02  8.76717036E-02  6.58410149E-02  1.23894418E-02
  1.07919783E-02 -1.65343862E-01 -1.16985884E-01  2.17316162E-02 -2.15276140E-02
 -1.27921797E-01  2.14470149E-01  2.52910963E-02 -5.91090189E-02 -1.12802196E-01
  1.64814300E-01  6.80978483E-02 -8.93136243E-03  5.37601389E-03  1.05908891E-01
  1.90863331E-01 -1.38613463E-01  6.90044176E-02  5.73478130E-02  1.66830501E-01
 -1.11606718E-01  1.02888325E-01  6.90109862E-02  4.93514302E-02  5.44572487E-02
 -3.52273803E-02  3.62946250E-02 -1.80151782E-01 -8.82987546E-02  1.45401463E-01
  1.41343183E-01 -1.88310542E-01 -9.54800959E-02  1.56929614E-01 -3.66637549E-02
 -3.46229870E-02 -2.12831799E-02 -8.86871846E-03  1.75613331E-01  1.35337515E-01
  2.21961196E-02  4.30823643E-02  1.96421425E-02 -1.92801305E-02 -2.08671989E-01
 -1.37903491E-01  3.69333402E-02 -7.28320877E-02 -1.70185141E-01 -1.04123212E-01
  2.65660875E-02 -4.95766428E-03  1.97156170E-03  6.21252215E-02 -1.45036191E-01
 -2.15856842E-01  4.69435667E-02  3.14739287E-02 -9.49923568E-02 -1.68634879E-01
 -7.40105067E-02 -5.44595849E-02  6.27583737E-02  6.07438263E-02 -1.10926312E-02
  7.98036830E-03 -1.18267530E-01  2.35728444E-01  1.37192636E-02  5.24975757E-02
 -1.25403344E-01  2.45224288E-01  9.86370257E-03  1.73154802E-01  1.52117062E-01
 -3.62717160E-02 -2.82399572E-02  9.36599516E-03 -8.91603246E-04 -1.20808733E-01
 -1.09538857E-01 -1.67765979E-05  1.15540855E-04 -1.38459068E-01  3.95942397E-02
  7.96716954E-02  2.77942360E-04 -1.34224278E-01  2.99411592E-02  1.83822927E-02
  5.07613044E-03 -4.70497755E-03  2.53702201E-01 -1.05324531E-01  1.60138408E-01
 -1.03291727E-03  2.31481503E-01 -7.74337724E-02  1.57800814E-01  6.15430411E-02
  5.94286513E-02  3.86699526E-02  3.14529211E-02  3.83521001E-02 -3.53182174E-02
 -1.75432611E-01 -2.65623757E-02 -1.58961394E-01 -1.73672209E-01 -1.91523794E-01
 -2.42981930E-02 -1.79247776E-01 -3.25014603E-02 -1.84960549E-02  2.25593577E-01
  1.88452512E-01 -8.82517228E-02 -8.81910017E-02  8.42534424E-02  7.38433294E-02
 -2.58776178E-04  8.56625583E-04 -1.11550234E-02 -2.04991865E-01 -6.44859464E-03
 -1.14580552E-02 -1.59707755E-02 -1.89003392E-01 -6.27289828E-02 -2.94532214E-03
  4.56734545E-03  5.08470159E-02  2.64782604E-01  2.96656983E-02  2.62314067E-03
  6.64386247E-02  2.51485976E-01  2.99691159E-02 -1.29454264E-01 -1.05620463E-01
 -1.08743316E-02 -2.12320603E-02  1.89727367E-02 -2.46898472E-02 -2.04712819E-02
  1.58639502E-01 -2.00518524E-01 -7.11034476E-02 -2.56785996E-02  1.83503972E-01
 -2.36039280E-01 -1.76244982E-01 -1.70770449E-01  5.50880024E-03 -5.48506649E-03
  1.70603661E-01  1.59574909E-01 -1.95653299E-02 -5.47874327E-02  6.05144747E-03
 -9.87296056E-03 -1.71647725E-02 -6.25026217E-02 -2.52967078E-01 -8.96208244E-03
 -4.99516223E-02 -7.10680651E-02 -1.35135556E-01 -1.51367995E-02  1.24357018E-02
 -1.37808084E-02  5.02880914E-03  1.94279724E-01  8.60349564E-02 -1.99182797E-02
  3.19712606E-02  1.53011351E-01 -1.72113217E-01 -1.82345915E-01  1.33583419E-01
  1.57484224E-01 -5.01498405E-02  4.99785397E-02 -9.69297461E-02  2.99028809E-02
  2.84245652E-01  2.23952465E-01 -1.16817409E-01  1.72895588E-02  3.48219727E-01
 -9.42271036E-02 -1.24879044E-01  1.03744360E-01  1.18781886E-01 -6.92503781E-02
 -9.37351270E-02 -1.15456099E-01 -1.12997086E-01  6.91020418E-03 -1.00887624E-02
 -2.20569651E-01  7.16577727E-03 -3.13220875E-02 -3.34649461E-03 -8.84090123E-02
  1.46999507E-02 -4.35134869E-02  3.03677195E-02 -2.70822720E-02  1.92117844E-01
  2.02670852E-02 -6.97063034E-02 -1.84954147E-01  1.70341644E-01 -4.41990899E-02
 -5.72029930E-02 -1.74614427E-02 -2.22538919E-02  1.69451678E-01  2.23862888E-01
 -4.56412397E-03  1.84249768E-03  4.15239521E-01 -6.56075635E-02  2.47972045E-02
  3.27508695E-02  5.13716256E-01 -7.72039221E-02  2.70314941E-02 -2.02778610E-02
 -2.46526598E-02  5.87199770E-02  1.13329530E-01  5.24761840E-02  1.01965328E-01
 -1.52918384E-02 -1.38936401E-02 -5.17916881E-02  4.35440602E-04 -6.13654078E-02
  8.91684429E-02 -8.28540969E-02  8.95117214E-01 -2.46874846E-01  2.85944147E-01
 -3.15175797E-01 -7.07417721E-02  1.99306056E-02  3.80841813E-02 -3.27628362E-02
 -8.36211689E-02  9.44642546E-01  3.37742910E-01 -1.68540931E-01 -3.71394049E-01
  1.93933612E-02 -2.94645926E-01 -8.02972176E-03 -7.81395685E-01 -6.73896871E-02
  2.65900928E-02  1.12737457E-02 -1.05361953E-01 -1.26767699E-01  6.15618665E-01
  2.01171189E-02 -2.55369711E-01 -2.72849270E-01  2.32818481E-02 -7.11463229E-01
  1.86676826E-02 -2.89051034E-01 -3.48835067E-02 -5.89072064E-01 -4.02107693E-02
 -8.63396266E-01 -3.45009251E-02 -2.17333313E-03  6.73676332E-02  1.79758516E-01
  3.45386672E-02  6.40866755E-01  3.41317416E-01  6.05684679E-01  1.17454770E-01
  7.41926059E-02 -1.33926425E-02  3.46896523E-02  1.60285406E-01  3.59748913E-02
 -1.08139372E+00  1.68066106E-01  7.35518850E-01  7.60064568E-02 -6.67220938E-02
 -1.05122070E+00  1.91392837E-02  1.99866010E-01 -3.60980164E-02  1.88759527E-02
 -4.95579360E-04  4.54649428E-02 -8.53679858E-02  3.06520742E-01 -1.02403953E-02
  9.49746054E-02 -1.94855745E-01  6.77761168E-02  1.35635802E+00 -3.63800946E-03
  3.19309276E-01 -7.26984776E-02 -4.51237468E-01 -4.45687888E-03 -8.97585205E-02
 -5.71472353E-02  3.95906320E-02 -2.25284872E-02  4.33070599E-02  1.08192549E-01
  6.87474528E-01 -2.29948693E-01  2.97529334E-01  4.63074390E-01 -9.95089125E-02
  1.86975915E-02  1.29046185E-01  4.09627126E-02  3.29280493E-02  1.56938714E+00
  5.55066623E-01  3.88536457E-03  1.96248416E-01 -1.87768077E-02 -9.78118757E-01
  3.50074027E-02 -7.16076528E-02  5.50715978E-02 -1.65394671E-02  3.81599194E-02
  3.47652262E-02  1.00144864E-01 -5.40700505E-01  6.71301015E-02  6.18241617E-02
  2.14974941E-01  8.23211671E-03 -2.66182108E-01 -4.46334828E-02 -1.28003598E+00
  4.02027770E-02 -6.21706326E-01  4.77403111E-02  6.72855080E-01 -1.22776866E-01
  3.70293959E-02 -1.16682240E-01  3.44060116E-02 -7.25791533E-02  1.72063409E+00
 -4.84304355E-01  3.77575207E-01 -4.04873698E-01  8.59252566E-02 -1.42144646E-02
 -3.98381702E-02 -8.42575700E-02  3.17540094E-02 -1.22752007E+00 -2.08470192E-02
 -5.95122111E-01  1.95864155E-01  8.84226186E-03 -6.94614349E-01 -1.66543055E-02
 -1.49320932E+00  2.59091079E-02 -1.59607332E-02 -8.19631409E-03 -3.81445285E-03
  8.93598590E-02 -2.06450817E-01  4.16573395E-02  7.73275827E-03  1.80083833E-01
 -3.12164575E-02  6.04451772E-02 -9.79261553E-03  3.11098536E-01  3.71061937E-02
  1.16891067E+00 -2.35130911E-03  2.86329945E-01 -8.57886888E-03 -6.95913188E-04
 -8.54958719E-02  2.19950210E-02 -3.30791606E-02  1.83103279E-01 -2.02655816E-01
 -3.96102551E-02 -1.16747358E-02 -2.35498583E-02  6.93539578E-03 -9.53736509E-02
  1.35002610E-01 -2.02443764E-01  3.36184308E-01 -5.04237215E-01  5.85601958E-01
 -9.73752073E-01  1.42600888E-02  4.94709323E-03 -3.56477490E-02 -5.16473220E-01
  3.13107886E-02 -5.06956933E-03  5.01721830E-02  9.61355422E-02  4.09731647E-02
 -3.51338194E-01  9.80671485E-02  2.06434815E-01  1.39629923E-01 -3.97667486E-02
 -4.29445217E-01  6.37960823E-02  1.31531448E+00 -2.38978932E-02 -1.25232387E+00
  5.09367242E-02  5.99427694E-01  3.77294944E-03 -1.11609330E-02 -1.18746485E-01
 -1.20425222E-01 -1.91280507E-01 -4.27284103E-02 -4.85657004E-01 -7.40487167E-01
 -9.69306120E-01 -1.65630265E-03  8.37619483E-03  7.94974543E-02  1.55428389E-01
  9.31350320E-02 -6.42594325E-02  5.87667236E-01  8.75446848E-01  6.26931493E-01
  3.26174031E-03  1.30540550E+00 -4.45855221E-03 -1.06095030E+00 -2.42955696E-03
  8.78332520E-03  4.85019908E-02  6.97835693E-03  4.45647737E-02 -1.88053557E-02
  9.16657240E-02  4.02456987E-02  1.40788207E-01  1.84172759E-02  1.22050917E+00
 -1.81286812E-02 -6.58902257E-01 -3.43470398E-03 -6.03195605E-01 -2.01972125E-02
 -4.50341467E-02 -1.19134795E-01  3.23274726E-02  2.38520942E-01 -1.34930969E-01
 -5.98638789E-02  1.63613208E+00  1.39798673E+00 -8.10027413E-01 -4.70280799E-01
  8.65105200E-02  3.69538656E-03  1.37338393E-01 -2.02279445E-02 -1.16584227E-01
 -1.33115336E+00  1.33899215E+00  9.80585658E-02 -1.14663804E+00  4.66103703E-02
  3.35198693E-01  5.62015131E-02  2.94410728E-01  3.51083630E-02 -5.73592693E-03
 -7.91692055E-02 -7.85180673E-02  8.11316349E-02 -3.82310959E-01 -2.54496438E-01
 -2.07584940E-01  2.50442921E-01 -5.23876978E-02 -1.81902166E-01 -5.82431809E-02
  7.73548805E-02 -1.82742101E-02 -4.20693256E-01  8.62782347E-03 -8.01072300E-02
 -6.14444592E-02  4.11951737E-02 -1.07880070E-01 -1.33436507E-01  1.88959048E-01
  4.48574806E-01 -5.59919628E-01 -7.98297355E-01  1.09324042E+00 -1.01153902E-03
  5.38237107E-03 -1.07581967E-01  1.06484514E-01  2.28886537E-02  1.07605339E-01
 -5.97874957E-01  6.41536672E-01  9.79291288E-02  4.97148683E-02 -4.27763766E-01
  3.45028914E-02  3.21383496E-02  5.50848064E-02 -1.46283324E-02 -1.86705687E-02
 -2.79055343E-01  4.81423521E-02 -5.96565066E-01 -7.83221680E-02 -7.86343271E-01
  1.79604785E-01  8.91615783E-03  5.53307882E-01 -2.12246812E-02  4.70785177E-01
  7.19831944E-02 -2.88233506E-01 -2.86066979E-02 -6.57922869E-01 -1.45260935E-03
 -2.03828508E-02 -1.44598808E-01 -1.21266188E-01 -2.61092493E-01 -9.55443308E-02
  1.04651182E-01  1.85961533E-01  4.47375195E-01  1.63089664E-03 -9.16327129E-03
 -2.04337281E-01 -2.51094080E-01 -4.54985000E-01  9.31438151E-02  2.40904541E-01
  3.75776572E-01  7.07274069E-01 -4.05514918E-01  1.00059695E-01  3.40093701E-01
 -7.70731130E-02  1.53200016E-02 -2.27897169E-02 -3.00215216E-02  1.63535618E-02
 -3.38784347E-02 -1.11104515E-01 -2.34648496E-02 -1.80082522E-02 -1.68618124E-02
  5.16481239E-01 -1.11226224E-01 -4.27889502E-01  1.10759381E-01 -2.03850502E-02
  2.45623239E-02  7.96650721E-02  8.99052528E-02 -4.25757990E-02  1.40579061E-01
 -3.78641883E-01 -5.19140972E-01  4.61364180E-01 -1.37719950E-01  4.94727502E-01
  3.73313022E-01 -4.37990243E-01  5.13180230E-03 -2.94684538E-02  4.51953125E-01
 -3.37498061E-01 -7.19892558E-02 -3.34893374E-01 -5.19976540E-01  5.51682298E-01
 -7.56495819E-02 -6.04368764E-02  2.84795645E-02 -5.74738173E-02 -3.11951723E-02
  1.52411744E-02 -5.80256031E-02 -2.27504654E-02 -1.22195661E-01  1.08514692E-01
  1.77808349E-01 -5.83223267E-02  1.02384449E-02  1.66890674E-02  1.92634151E-01
  2.49256378E-02  2.92508344E-01  4.31399406E-02 -2.81035390E-01  3.42749512E-02
 -7.46965629E-02  1.96252682E-01 -1.02902308E-02 -1.15661824E-02  3.03107809E-01
 -2.83889817E-01  3.29636437E-02  6.00618497E-01 -5.95648860E-01  1.81130531E-01
  6.82774128E-02 -2.06511272E-02  3.20166202E-02 -5.64798614E-01 -2.62354549E-01
  4.12712784E-01  3.96979099E-01  7.66914736E-01  5.79168468E-01 -5.89540523E-01
 -1.90197804E-01 -7.50241519E-02 -2.54932213E-01 -8.02271954E-02  1.90228704E-02
 -1.28133954E-02  1.66676149E-01 -2.32593565E-02  1.31176993E-02 -1.51989050E-01
  8.35663200E-02 -4.93329601E-02  7.79545641E-02  5.64017666E-02 -6.63973573E-02