h2o HF/6-31g(d) opt                                                     
Freq      RHF                                                         6-31G(d)            
Number of atoms                            I                3
Charge                                     I                0
Multiplicity                               I                1
Number of electrons                        I               10
Number of alpha electrons                  I                5
Number of beta electrons                   I                5
Number of basis functions                  I               19
Number of independant functions            I               19
Number of point charges in /Mol/           I                0
Number of translation vectors              I                0
Info1-9                                    I   N=           9
          10          10           0           0           0         100
           6           1           2
Num ILSW                                   I              100
ILSW                                       I   N=         100
           0           1           0           0           2           0
           0           0           0           0           0     1000000
           0           0          -1           1           0           0
           0     1000000           0           0           1           0
           1           1           0           0     1000000           0
           0           0      100000           0          -1           0
           0           0           0           0           0           0
           0           0           0           1           0           0
           0           0           1     1000000     1000000           0
           0           0           0           0           0           0
           0           0           0           0           0           0
           0           0           0           0           0           0
           0           0           0           0           0           0
           0           0           0           0           0           0
           0           0           0           0           0           0
           0           0           0           0           0           0
           0           0           0           0
Number of contracted shells                I                8
Highest angular momentum                   I                2
Largest degree of contraction              I                6
Number of primitive shells                 I               19
Pure/Cartesian d shells                    I                1
Pure/Cartesian f shells                    I                1
Virial Ratio                               R      2.001991163736332E+00
SCF Energy                                 R     -7.601074651516148E+01
Total Energy                               R     -7.601074651516148E+01
RMS Force                                  R      6.306631274862882E-06
RMS Density                                R      3.622875185526688E-09
Atomic numbers                             I   N=           3
           8           1           1
Nuclear charges                            R   N=           3
  8.00000000E+00  1.00000000E+00  1.00000000E+00
Current cartesian coordinates              R   N=           9
 -1.47213445E+00  3.80870523E+00  1.62955620E+00 -2.64440527E+00  2.63643441E+00
  2.30499534E+00 -1.61915704E+00  3.66168265E+00 -1.48485231E-01
Int Atom Types                             I   N=           3
           0           0           0
Force Field                                I                0
MM charges                                 R   N=           3
  0.00000000E+00  0.00000000E+00  0.00000000E+00
Integer atomic weights                     I   N=           3
          16           1           1
Real atomic weights                        R   N=           3
  1.59949146E+01  1.00782504E+00  1.00782504E+00
Atom residue info                          I   N=           3
           0           0           0
Atom fragment info                         I   N=           3
           0           0           0
Atom residue num                           I   N=           3
           0           0           0
Nuclear spins                              I   N=           3
           0           1           1
Nuclear ZEff                               R   N=           3
 -5.60000000E+00 -1.00000000E+00 -1.00000000E+00
Nuclear QMom                               R   N=           3
  0.00000000E+00  0.00000000E+00  0.00000000E+00
Nuclear GFac                               R   N=           3
  0.00000000E+00  2.79284600E+00  2.79284600E+00
MicOpt                                     I   N=           3
          -1          -1          -1
Constraint Structure                       R   N=           9
 -1.47213445E+00  3.80870523E+00  1.62955620E+00 -2.64440527E+00  2.63643441E+00
  2.30499534E+00 -1.61915704E+00  3.66168265E+00 -1.48485231E-01
ONIOM Charges                              I   N=          16
           0           0           0           0           0           0
           0           0           0           0           0           0
           0           0           0           0
ONIOM Multiplicities                       I   N=          16
           1           0           0           0           0           0
           0           0           0           0           0           0
           0           0           0           0
Atom Layers                                I   N=           3
           1           1           1
Atom Modifiers                             I   N=           3
           0           0           0
Int Atom Modified Types                    I   N=           3
           0           0           0
Link Atoms                                 I   N=           3
           0           0           0
Atom Modified MM Charges                   R   N=           3
  0.00000000E+00  0.00000000E+00  0.00000000E+00
Link Distances                             R   N=          12
  0.00000000E+00  0.00000000E+00  0.00000000E+00  0.00000000E+00  0.00000000E+00
  0.00000000E+00  0.00000000E+00  0.00000000E+00  0.00000000E+00  0.00000000E+00
  0.00000000E+00  0.00000000E+00
MxBond                                     I                2
NBond                                      I   N=           3
           2           1           1
IBond                                      I   N=           6
           2           3           1           0           1           0
RBond                                      R   N=           6
  1.00000000E+00  1.00000000E+00  1.00000000E+00  0.00000000E+00  1.00000000E+00
  0.00000000E+00
Shell types                                I   N=           8
           0          -1          -1           2           0           0
           0           0
Number of primitives per shell             I   N=           8
           6           3           1           1           3           1
           3           1
Shell to atom map                          I   N=           8
           1           1           1           1           2           2
           3           3
Primitive exponents                        R   N=          19
  5.48467166E+03  8.25234946E+02  1.88046958E+02  5.29645000E+01  1.68975704E+01
  5.79963534E+00  1.55396162E+01  3.59993359E+00  1.01376175E+00  2.70005823E-01
  8.00000000E-01  1.87311370E+01  2.82539436E+00  6.40121692E-01  1.61277759E-01
  1.87311370E+01  2.82539436E+00  6.40121692E-01  1.61277759E-01
Contraction coefficients                   R   N=          19
  1.83107443E-03  1.39501722E-02  6.84450781E-02  2.32714336E-01  4.70192898E-01
  3.58520853E-01 -1.10777550E-01 -1.48026263E-01  1.13076702E+00  1.00000000E+00
  1.00000000E+00  3.34946043E-02  2.34726953E-01  8.13757326E-01  1.00000000E+00
  3.34946043E-02  2.34726953E-01  8.13757326E-01  1.00000000E+00
P(S=P) Contraction coefficients            R   N=          19
  0.00000000E+00  0.00000000E+00  0.00000000E+00  0.00000000E+00  0.00000000E+00
  0.00000000E+00  7.08742682E-02  3.39752839E-01  7.27158577E-01  1.00000000E+00
  0.00000000E+00  0.00000000E+00  0.00000000E+00  0.00000000E+00  0.00000000E+00
  0.00000000E+00  0.00000000E+00  0.00000000E+00  0.00000000E+00
Coordinates of each shell                  R   N=          24
 -1.47213445E+00  3.80870523E+00  1.62955620E+00 -1.47213445E+00  3.80870523E+00
  1.62955620E+00 -1.47213445E+00  3.80870523E+00  1.62955620E+00 -1.47213445E+00
  3.80870523E+00  1.62955620E+00 -2.64440527E+00  2.63643441E+00  2.30499534E+00
 -2.64440527E+00  2.63643441E+00  2.30499534E+00 -1.61915704E+00  3.66168265E+00
 -1.48485231E-01 -1.61915704E+00  3.66168265E+00 -1.48485231E-01
Alpha Orbital Energies                     R   N=          19
 -2.05578744E+01 -1.34613856E+00 -7.14269937E-01 -5.70804282E-01 -4.98211219E-01
  2.13021554E-01  3.06869943E-01  1.03169230E+00  1.13339576E+00  1.16802770E+00
  1.17847926E+00  1.38511629E+00  1.43120671E+00  2.02055613E+00  2.03057500E+00
  2.06722916E+00  2.63564107E+00  2.96580651E+00  3.97771031E+00
Alpha MO coefficients                      R   N=         361
  9.94622683E-01  2.11725184E-02 -8.14112863E-04 -8.14112863E-04 -6.80394506E-04
  4.14732382E-03  2.80261319E-04  2.80261319E-04  2.34228897E-04 -4.03154083E-03
 -4.03154083E-03 -4.17900784E-03 -1.02123383E-04  4.37646712E-05  4.37646712E-05
  3.24294701E-04 -2.05211296E-04  3.24295906E-04 -2.05211589E-04 -2.09532051E-01
  4.75758484E-01 -5.76819288E-02 -5.76819288E-02 -4.82074277E-02  4.35314488E-01
 -3.03205169E-02 -3.03205169E-02 -2.53403612E-02  1.08677154E-02  1.08677154E-02
  2.54777543E-02  1.37418065E-02 -2.00890040E-03 -2.00890040E-03  1.33033386E-01
  1.72525694E-03  1.33033030E-01  1.72529290E-03  1.36155150E-07 -2.66017242E-07
 -1.83084005E-01 -1.83084005E-01  4.38129588E-01 -6.80659584E-07 -1.09316955E-01
 -1.09316955E-01  2.61601358E-01  1.92992441E-02  1.92992441E-02 -3.85984626E-02
  2.22848527E-02 -1.73521665E-02 -1.73521665E-02  2.32453065E-01  1.07244647E-01
 -2.32452831E-01 -1.07244727E-01 -7.30909775E-02  1.63645753E-01  3.39545512E-01
  3.39545512E-01  2.83775841E-01  3.25436115E-01  2.46458460E-01  2.46458460E-01
  2.05978203E-01 -1.11199329E-02 -1.11199329E-02 -1.13987154E-02 -2.65461541E-02
 -1.68395222E-02 -1.68395222E-02 -1.40052353E-01 -8.27737709E-02 -1.40052716E-01
 -8.27741412E-02  4.50768921E-16  2.63387203E-16  4.52029249E-01 -4.52029249E-01
 -4.82865072E-16 -4.75722194E-15  3.61923149E-01 -3.61923149E-01 -2.52400673E-16
 -2.54755805E-02  2.54755805E-02  1.05372955E-15 -2.00458167E-16 -1.22924705E-02
  1.22924705E-02  3.83492689E-16  2.60405457E-15  1.04678586E-15 -9.31459914E-16
 -1.01450093E-01  5.57171540E-02 -1.28971391E-01 -1.28971391E-01 -1.07788685E-01
  1.43988817E+00 -3.05902020E-01 -3.05902020E-01 -2.55659110E-01 -6.03470083E-02
 -6.03470083E-02 -5.36603974E-02  1.43926697E-02  4.28409327E-03  4.28409327E-03
 -5.36940510E-02 -1.05153777E+00 -5.36943903E-02 -1.05154007E+00  1.67982677E-07
  3.10569657E-08  1.17159505E-01  1.17159505E-01 -2.80369237E-01 -3.47128593E-06
  3.02471448E-01  3.02471448E-01 -7.23830334E-01 -8.80194692E-03 -8.80194692E-03
  1.76043141E-02 -1.01638261E-02  7.91409822E-03  7.91409822E-03  4.66038884E-02
  1.41334337E+00 -4.66040314E-02 -1.41333923E+00  1.13980947E-07 -1.40902228E-06
 -3.15224924E-02 -3.15224924E-02  7.54379003E-02  3.08001512E-06 -2.55027097E-01
 -2.55027097E-01  6.10293372E-01 -7.54840768E-02 -7.54840768E-02  1.50967465E-01
 -8.71606043E-02  6.78679584E-02  6.78679584E-02 -8.39449547E-01  4.20726021E-01
  8.39455035E-01 -4.20731336E-01  2.35809371E-03 -8.98641545E-01 -2.88132368E-01
 -2.88132368E-01 -2.40805892E-01  1.58435013E+00  4.60362050E-01  4.60362050E-01
  3.84744304E-01 -3.29520732E-01 -3.29520732E-01 -2.19521730E-01  5.36279088E-02
 -4.71252715E-02 -4.71252715E-02  5.17557656E-01 -4.36274552E-01  5.17555084E-01
 -4.36275655E-01 -9.92221770E-15  5.44920637E-14 -6.80924420E-01  6.80924420E-01
 -3.30442201E-14 -2.86678179E-14  7.32476001E-01 -7.32476001E-01 -1.79423369E-14
 -1.04673810E-02  1.04673810E-02 -2.03701814E-14 -2.17132935E-14 -5.05074693E-03
  5.05074693E-03 -1.54259133E-13  9.04830801E-14 -1.56676971E-13  8.46840036E-14
  5.10535108E-02  5.25696240E-02  4.45406201E-01  4.45406201E-01  3.72249589E-01
 -4.11237916E-01 -1.91942826E-01 -1.91942826E-01 -1.60421938E-01  1.57557057E-02
  1.57557057E-02  2.01445389E-01  1.10855715E-01 -6.65007070E-02 -6.65007070E-02
  6.94333768E-01 -3.68232627E-01  6.94328891E-01 -3.68233965E-01  1.22935055E-07
 -1.71264382E-07  3.74255237E-01  3.74255237E-01 -8.95614339E-01 -3.34190230E-07
 -5.54363044E-01 -5.54363044E-01  1.32662503E+00  1.01872696E-02  1.01872696E-02
 -2.03741625E-02  1.17638890E-02 -9.15992377E-03 -9.15992377E-03  1.08459449E-01
 -9.34757224E-01 -1.08456145E-01  9.34755765E-01 -8.56681631E-02 -1.44348473E+00
  3.05098612E-01  3.05098612E-01  2.54985532E-01  3.63781614E+00 -7.05137839E-01
 -7.05137839E-01 -5.89317299E-01 -3.79442578E-01 -3.79442578E-01 -5.81709810E-01
 -9.97449020E-02  8.59256187E-02  8.59256187E-02 -3.01251323E-01 -8.12287333E-01
 -3.01251971E-01 -8.12283100E-01  7.48169813E-03  7.85231681E-02 -1.72202250E-03
 -1.72202250E-03 -1.43923648E-03 -2.34071383E-01  7.94853030E-02  7.94853030E-02
  6.64299245E-02  1.09163588E-01  1.09163588E-01 -1.56261918E-01  5.70852853E-01
  5.63369773E-01  5.63369773E-01  8.05823080E-02  3.73586623E-02  8.05823601E-02
  3.73585234E-02  1.90512873E-15  1.89292766E-14 -3.91161795E-08  3.91161869E-08
 -1.11877484E-14 -5.64463830E-14 -3.21935627E-08  3.21935844E-08  3.41140144E-14
 -4.40604525E-01  4.40604525E-01 -3.83441368E-14  1.16936153E-13  6.08751538E-01
 -6.08751538E-01  1.43238939E-14  1.45984213E-15  2.71057949E-14  1.28511472E-14
 -4.62555485E-16 -5.80765203E-15  5.88974847E-03 -5.88974847E-03 -4.28268944E-15
  1.42589578E-14  2.26657913E-02 -2.26657913E-02  5.48081926E-15  7.45056429E-01
 -7.45056429E-01 -2.89833469E-15 -1.01502803E-14  3.59506537E-01 -3.59506537E-01
 -5.11367720E-15 -2.18183377E-15  3.57774916E-15 -3.61114437E-15 -5.86574128E-02
 -4.83510278E-01  2.19005774E-02  2.19005774E-02  1.83041598E-02  1.59546928E+00
 -4.51768404E-01 -4.51768404E-01 -3.77567351E-01 -4.58857530E-01 -4.58857530E-01
  5.78484114E-01  7.76552703E-01 -2.70505504E-01 -2.70505504E-01 -8.59086138E-01
 -1.47171732E-01 -8.59089226E-01 -1.47170593E-01  2.48477888E-07  9.79367512E-07
 -2.25499837E-03 -2.25499837E-03  5.39716494E-03 -5.96553601E-06  3.23431274E-01
  3.23431274E-01 -7.73984548E-01 -4.91396941E-01 -4.91396941E-01  9.82794882E-01
 -5.67419938E-01  4.41822666E-01  4.41822666E-01  9.76462671E-01 -2.51498363E-02
 -9.76456141E-01  2.51513553E-02 -4.67001826E-01  3.19900015E-01  7.15923471E-02
  7.15923471E-02  5.98331117E-02  3.65010127E+00 -1.91642659E-01 -1.91642659E-01
 -1.60165421E-01 -1.55376581E+00 -1.55376581E+00 -1.53859408E+00  9.50844346E-03
 -5.14317560E-03 -5.14317560E-03  1.36818886E-01 -5.55664569E-01  1.36817946E-01
 -5.55663372E-01
Total SCF Density                          R   N=         190
  2.07704051E+00 -1.81178024E-01  5.07148687E-01 -2.70825211E-02  5.62106522E-02
  7.12938435E-01 -2.70825211E-02  5.62106522E-02 -1.04383332E-01  7.12938435E-01
 -2.26342571E-02  4.69781927E-02  3.78430898E-02  3.78430898E-02  5.49621365E-01
 -2.21747518E-01  5.20897217E-01  1.70774683E-01  1.70774683E-01  1.42724791E-01
  5.90849137E-01 -2.27640605E-02  5.18252004E-02  5.38093234E-01 -1.16306163E-01
  4.70108960E-02  1.34017521E-01  4.09199495E-01 -2.27640605E-02  5.18252004E-02
 -1.16306163E-01  5.38093234E-01  4.70108960E-02  1.34017521E-01 -1.14753969E-01
  4.09199495E-01 -1.90250506E-02  4.33129119E-02  4.70108801E-02  4.70108801E-02
  3.48576734E-01  1.12005026E-01  4.58720106E-02  4.58720106E-02  2.23008959E-01
 -1.09484545E-02  6.53062998E-03 -3.88968048E-02  7.16602535E-03  9.55767995E-03
  2.19062590E-03 -2.88023662E-02  8.07844318E-03  4.96381709E-03  2.55895898E-03
 -1.09484545E-02  6.53062998E-03  7.16602535E-03 -3.88968048E-02  9.55767995E-03
  2.19062590E-03  8.07844318E-03 -2.88023662E-02  4.96381709E-03 -3.70618331E-05
  2.55895898E-03 -1.73236082E-02  2.03348731E-02  3.46034930E-03  3.46034930E-03
 -4.27423643E-02  1.47279530E-02  1.27297330E-03  1.27297330E-03 -2.61837830E-02
 -6.48870754E-04 -6.48870754E-04  4.57270419E-03 -2.08127148E-03  4.38289495E-03
 -2.77723967E-02 -2.77723967E-02  3.13621690E-03 -5.31501711E-03 -1.87906476E-02
 -1.87906476E-02  2.71447269E-05  1.75005204E-03  1.75005204E-03 -4.14063709E-04
  2.78032127E-03  3.39054627E-03 -7.42107298E-03 -1.59631893E-02  6.26303548E-03
 -2.45686660E-02 -1.27089977E-02 -1.32827264E-02  4.51299212E-03 -1.59140167E-02
  2.87039771E-04 -9.65591513E-04  1.62070141E-03  6.54473787E-05  1.47961923E-03
  3.39054627E-03 -7.42107298E-03  6.26303548E-03 -1.59631893E-02 -2.45686660E-02
 -1.27089977E-02  4.51299212E-03 -1.32827264E-02 -1.59140167E-02 -9.65591513E-04
  2.87039771E-04  1.62070141E-03  6.54473787E-05  8.75199913E-04  1.47961923E-03
 -3.46312249E-02  8.07591873E-02 -1.95572945E-01 -1.95572945E-01  1.11375346E-01
  2.46689068E-02 -1.27923397E-01 -1.27923397E-01  5.71825350E-02  1.49760055E-02
  1.49760055E-02 -7.97575463E-03  2.14522392E-02 -3.88477239E-03 -3.88477239E-03
  1.82694152E-01  1.09688520E-02 -2.54582877E-02 -9.56791823E-02 -9.56791823E-02
  4.68296523E-02 -5.23749384E-02 -6.43526452E-02 -6.43526452E-02  2.19239724E-02
  6.01951264E-03  6.01951264E-03 -6.30230121E-03  9.22197112E-03 -9.41062140E-04
 -9.41062140E-04  7.35029172E-02  3.67118604E-02 -3.46311465E-02  8.07589765E-02
 -2.53394832E-02 -2.53394832E-02 -2.96002882E-01  2.46689929E-02 -2.62793609E-02
 -2.62793609E-02 -1.86057624E-01 -2.96865887E-03 -2.96865887E-03  2.79135411E-02
  7.31529826E-04  1.22494903E-02  1.22494903E-02 -3.34434421E-02 -2.62143618E-02
  1.82693948E-01  1.09688320E-02 -2.54582606E-02 -1.71402902E-02 -1.71402902E-02
 -1.41118844E-01 -5.23748561E-02 -1.74581793E-02 -1.74581793E-02 -9.02976056E-02
 -2.25944393E-03 -2.25944393E-03  1.02556293E-02 -3.37736485E-04  6.50266086E-03
  6.50266086E-03 -2.62143946E-02 -9.29375298E-03  7.35030764E-02  3.67120175E-02
Cartesian Gradient                         R   N=           9
 -3.82473882E-06 -3.82473882E-06 -2.10535258E-06  6.58819684E-06  6.58819685E-06
 -9.43479929E-06 -2.76345802E-06 -2.76345802E-06  1.15401519E-05
Cartesian Force Constants                  R   N=          45
  2.99622607E-01  2.99627894E-01  2.99622607E-01 -7.77523396E-02 -7.77523397E-02
  7.20329345E-01 -2.64682125E-01 -2.64685098E-01  1.54015057E-01  2.61511096E-01
 -2.64685098E-01 -2.64682125E-01  1.54015057E-01  2.61517096E-01  2.61511096E-01
  1.02626450E-01  1.02626450E-01 -1.30424572E-01 -1.44708715E-01 -1.44708715E-01
  1.49606690E-01 -3.49404825E-02 -3.49427963E-02 -7.62627174E-02  3.17102843E-03
  3.16800146E-03  4.20822650E-02  3.17694541E-02 -3.49427963E-02 -3.49404825E-02
 -7.62627174E-02  3.16800146E-03  3.17102843E-03  4.20822650E-02  3.17747948E-02
  3.17694541E-02 -2.48741101E-02 -2.48741101E-02 -5.89904773E-01 -9.30634221E-03
 -9.30634222E-03 -1.91821180E-02  3.41804524E-02  3.41804524E-02  6.09086891E-01
Dipole Moment                              R   N=           3
 -5.26646179E-01 -5.26646179E-01 -4.40145308E-01
Dipole Derivatives                         R   N=          27
 -6.41566157E-01  1.56809793E-01  2.15787127E-02  1.56809794E-01 -6.41566157E-01
  2.15787127E-02  2.15782866E-02  2.15782866E-02 -5.18359893E-01  2.85939654E-01
 -1.13248432E-01  3.05269937E-02 -1.13248432E-01  2.85939654E-01  3.05269936E-02
  2.15656310E-03  2.15656311E-03  3.28867020E-01  3.55626504E-01 -4.35613619E-02
 -5.21057063E-02 -4.35613619E-02  3.55626504E-01 -5.21057063E-02 -2.37348497E-02
 -2.37348497E-02  1.89492873E-01
Polarizability                             R   N=           6
  4.03510237E+00  1.25670581E+00  4.03510237E+00 -5.79347570E-01 -5.79347571E-01
  6.19404481E+00
Polarizability Derivatives                 R   N=          54
  3.43960235E+00  2.48317787E+00  1.15963323E+00 -9.61018897E-02 -1.04885006E+00
  1.80368063E+00  1.15963322E+00  2.48317787E+00  3.43960235E+00 -1.04885006E+00
 -9.61018934E-02  1.80368063E+00 -4.75660478E-01 -3.22250013E-01 -4.75660479E-01
  1.38842589E+00  1.38842589E+00  6.30257669E+00 -3.19923486E+00 -2.27460367E+00
 -1.07467162E+00  1.57001684E+00  8.68310631E-01 -9.72200908E-01 -1.07467162E+00
 -2.27460367E+00 -3.19923486E+00  8.68310633E-01  1.57001684E+00 -9.72200906E-01
  4.92443772E-01  5.25508921E-01  4.92443771E-01 -1.28560099E+00 -1.28560099E+00
  1.23245623E+00 -2.40367486E-01 -2.08574205E-01 -8.49616069E-02 -1.47391495E+00
  1.80539427E-01 -8.31479725E-01 -8.49616042E-02 -2.08574203E-01 -2.40367484E-01
  1.80539429E-01 -1.47391495E+00 -8.31479724E-01 -1.67832938E-02 -2.03258908E-01
 -1.67832921E-02 -1.02824900E-01 -1.02824899E-01 -7.53503292E+00
HyperPolarizability                        R   N=          10
 -6.76706322E+00 -6.43907496E+00 -6.43907496E+00 -6.76706321E+00  4.02969490E+00
  4.16674720E+00  4.02969490E+00 -4.00966434E+00 -4.00966434E+00 -2.24475788E+01
QEq coupling tensors                       R   N=          18
  6.46871203E-01 -1.23122132E+00  6.46871203E-01  4.55522361E-01  4.55522361E-01
 -1.29374241E+00 -6.06154648E-02 -3.61181397E-01 -6.06154648E-02  1.90094772E-01
  1.90094772E-01  1.21230930E-01  2.61319267E-01 -3.92446593E-02  2.61319267E-01
 -6.05818090E-02 -6.05818090E-02 -5.22638534E-01
Mulliken Charges                           R   N=           3
 -8.68752832E-01  4.34376451E-01  4.34376382E-01
