 Entering Gaussian System, Link 0=g03
 Input=h2o.inp
 Output=h2o.log
 Initial command:
 /home/dylan/Gaussian/g03/l1.exe /scratch/g03/dylan/Gau-15765.inp -scrdir=/scratch/g03/dylan/
 Entering Link 1 = /home/dylan/Gaussian/g03/l1.exe PID=     15767.
  
 Copyright (c) 1988,1990,1992,1993,1995,1998,2003,2004,2007, Gaussian, Inc.
                  All Rights Reserved.
  
 This is the Gaussian(R) 03 program.  It is based on the
 the Gaussian(R) 98 system (copyright 1998, Gaussian, Inc.),
 the Gaussian(R) 94 system (copyright 1995, Gaussian, Inc.),
 the Gaussian 92(TM) system (copyright 1992, Gaussian, Inc.),
 the Gaussian 90(TM) system (copyright 1990, Gaussian, Inc.),
 the Gaussian 88(TM) system (copyright 1988, Gaussian, Inc.),
 the Gaussian 86(TM) system (copyright 1986, Carnegie Mellon
 University), and the Gaussian 82(TM) system (copyright 1983,
 Carnegie Mellon University). Gaussian is a federally registered
 trademark of Gaussian, Inc.
  
 This software contains proprietary and confidential information,
 including trade secrets, belonging to Gaussian, Inc.
  
 This software is provided under written license and may be
 used, copied, transmitted, or stored only in accord with that
 written license.
  
 The following legend is applicable only to US Government
 contracts under FAR:
  
                    RESTRICTED RIGHTS LEGEND
  
 Use, reproduction and disclosure by the US Government is
 subject to restrictions as set forth in subparagraphs (a)
 and (c) of the Commercial Computer Software - Restricted
 Rights clause in FAR 52.227-19.
  
 Gaussian, Inc.
 340 Quinnipiac St., Bldg. 40, Wallingford CT 06492
  
  
 ---------------------------------------------------------------
 Warning -- This program may not be used in any manner that
 competes with the business of Gaussian, Inc. or will provide
 assistance to any competitor of Gaussian, Inc.  The licensee
 of this program is prohibited from giving any competitor of
 Gaussian, Inc. access to this program.  By using this program,
 the user acknowledges that Gaussian, Inc. is engaged in the
 business of creating and licensing software in the field of
 computational chemistry and represents and warrants to the
 licensee that it is not a competitor of Gaussian, Inc. and that
 it will not use this program in any manner prohibited above.
 ---------------------------------------------------------------
  

 Cite this work as:
 Gaussian 03, Revision E.01,
 M. J. Frisch, G. W. Trucks, H. B. Schlegel, G. E. Scuseria, 
 M. A. Robb, J. R. Cheeseman, J. A. Montgomery, Jr., T. Vreven, 
 K. N. Kudin, J. C. Burant, J. M. Millam, S. S. Iyengar, J. Tomasi, 
 V. Barone, B. Mennucci, M. Cossi, G. Scalmani, N. Rega, 
 G. A. Petersson, H. Nakatsuji, M. Hada, M. Ehara, K. Toyota, 
 R. Fukuda, J. Hasegawa, M. Ishida, T. Nakajima, Y. Honda, O. Kitao, 
 H. Nakai, M. Klene, X. Li, J. E. Knox, H. P. Hratchian, J. B. Cross, 
 V. Bakken, C. Adamo, J. Jaramillo, R. Gomperts, R. E. Stratmann, 
 O. Yazyev, A. J. Austin, R. Cammi, C. Pomelli, J. W. Ochterski, 
 P. Y. Ayala, K. Morokuma, G. A. Voth, P. Salvador, J. J. Dannenberg, 
 V. G. Zakrzewski, S. Dapprich, A. D. Daniels, M. C. Strain, 
 O. Farkas, D. K. Malick, A. D. Rabuck, K. Raghavachari, 
 J. B. Foresman, J. V. Ortiz, Q. Cui, A. G. Baboul, S. Clifford, 
 J. Cioslowski, B. B. Stefanov, G. Liu, A. Liashenko, P. Piskorz, 
 I. Komaromi, R. L. Martin, D. J. Fox, T. Keith, M. A. Al-Laham, 
 C. Y. Peng, A. Nanayakkara, M. Challacombe, P. M. W. Gill, 
 B. Johnson, W. Chen, M. W. Wong, C. Gonzalez, and J. A. Pople, 
 Gaussian, Inc., Wallingford CT, 2004.
 
 ******************************************
 Gaussian 03:  AM64L-G03RevE.01 11-Sep-2007
                 3-Dec-2014 
 ******************************************
 %chk=h2o.chk
 ------------------------------------------
 #P HF/6-31g(d) nosym 6d 10f scf=tight freq
 ------------------------------------------
 1/10=4,30=1,38=1/1,3;
 2/15=1,17=6,18=5,40=1/2;
 3/5=1,6=6,7=1,8=22,11=9,16=1,25=1,30=1/1,2,3;
 4//1;
 5/5=2,32=2,38=5/2;
 8/6=4,10=90,11=11/1;
 10/13=10,31=1/2;
 11/6=2,8=1,9=11,15=111,16=1,31=1/1,2,10;
 10/6=1,31=1/2;
 6/7=2,8=2,9=2,10=2,18=1,28=1/1;
 7/8=1,10=1,25=1,30=1/1,2,3,16;
 1/10=4,30=1/3;
 99//99;
 Leave Link    1 at Wed Dec  3 16:49:39 2014, MaxMem=          0 cpu:       0.0
 (Enter /home/dylan/Gaussian/g03/l101.exe)
 -------------------
 h2o HF/6-31g(d) opt
 -------------------
 Symbolic Z-matrix:
 Charge =  0 Multiplicity = 1
 8                    -0.77902   2.01548   0.86232 
 1                    -1.39936   1.39514   1.21975 
 1                    -0.85682   1.93768  -0.07858 
 
                    Isotopes and Nuclear Properties:
 (Nuclear quadrupole moments (NQMom) in fm**2, nuclear magnetic moments (NMagM)
  in nuclear magnetons)

  Atom         1           2           3
 IAtWgt=          16           1           1
 AtmWgt=  15.9949146   1.0078250   1.0078250
 NucSpn=           0           1           1
 AtZEff=   0.0000000   0.0000000   0.0000000
 NQMom=    0.0000000   0.0000000   0.0000000
 NMagM=    0.0000000   2.7928460   2.7928460
 Leave Link  101 at Wed Dec  3 16:49:39 2014, MaxMem=    6291456 cpu:       0.0
 (Enter /home/dylan/Gaussian/g03/l103.exe)

 GradGradGradGradGradGradGradGradGradGradGradGradGradGradGradGradGradGrad
 Berny optimization.
 Initialization pass.
 Trust Radius=3.00D-01 FncErr=1.00D-07 GrdErr=1.00D-07
 Number of steps in this run=   2 maximum allowed number of steps=   2.
 GradGradGradGradGradGradGradGradGradGradGradGradGradGradGradGradGradGrad

 Leave Link  103 at Wed Dec  3 16:49:39 2014, MaxMem=    6291456 cpu:       0.0
 (Enter /home/dylan/Gaussian/g03/l202.exe)
                          Input orientation:                          
 ---------------------------------------------------------------------
 Center     Atomic     Atomic              Coordinates (Angstroms)
 Number     Number      Type              X           Y           Z
 ---------------------------------------------------------------------
    1          8             0       -0.779020    2.015480    0.862324
    2          1             0       -1.399359    1.395141    1.219751
    3          1             0       -0.856821    1.937679   -0.078575
 ---------------------------------------------------------------------
                    Distance matrix (angstroms):
                    1          2          3
     1  O    0.000000
     2  H    0.947309   0.000000
     3  H    0.947310   1.508093   0.000000
 Symmetry turned off by external request.
 Stoichiometry    H2O
 Framework group  CS[SG(H2O)]
 Deg. of freedom     3
 Full point group                 CS
 Rotational constants (GHZ):    858.6238373    440.9665379    291.3413243
 Leave Link  202 at Wed Dec  3 16:49:39 2014, MaxMem=    6291456 cpu:       0.0
 (Enter /home/dylan/Gaussian/g03/l301.exe)
 Standard basis: 6-31G(d) (6D, 10F)
 Integral buffers will be    131072 words long.
 Raffenetti 1 integral format.
 Two-electron integral symmetry is turned off.
    19 basis functions,    36 primitive gaussians,    19 cartesian basis functions
     5 alpha electrons        5 beta electrons
       nuclear repulsion energy         9.2886591481 Hartrees.
 IExCor=   0 DFT=F Ex=HF Corr=None ExCW=0 ScaHFX=  1.000000
 ScaDFX=  1.000000  1.000000  1.000000  1.000000
 IRadAn=      0 IRanWt=     -1 IRanGd=            0 ICorTp=0
 NAtoms=    3 NActive=    3 NUniq=    3 SFac= 7.50D-01 NAtFMM=   80 NAOKFM=F Big=F
 Leave Link  301 at Wed Dec  3 16:49:39 2014, MaxMem=    6291456 cpu:       0.0
 (Enter /home/dylan/Gaussian/g03/l302.exe)
 NPDir=0 NMtPBC=     1 NCelOv=     1 NCel=       1 NClECP=     1 NCelD=      1
         NCelK=      1 NCelE2=     1 NClLst=     1 CellRange=     0.0.
 One-electron integrals computed using PRISM.
 NBasis=    19 RedAO= T  NBF=    19
 NBsUse=    19 1.00D-06 NBFU=    19
 Leave Link  302 at Wed Dec  3 16:49:39 2014, MaxMem=    6291456 cpu:       0.1
 (Enter /home/dylan/Gaussian/g03/l303.exe)
 DipDrv:  MaxL=1.
 Leave Link  303 at Wed Dec  3 16:49:39 2014, MaxMem=    6291456 cpu:       0.0
 (Enter /home/dylan/Gaussian/g03/l401.exe)
 Harris functional with IExCor=  205 diagonalized for initial guess.
 ExpMin= 1.61D-01 ExpMax= 5.48D+03 ExpMxC= 8.25D+02 IAcc=1 IRadAn=         1 AccDes= 1.00D-06
 HarFok:  IExCor= 205 AccDes= 1.00D-06 IRadAn=         1 IDoV=1
 ScaDFX=  1.000000  1.000000  1.000000  1.000000
 Harris En= -76.1073592847129    
 Leave Link  401 at Wed Dec  3 16:49:39 2014, MaxMem=    6291456 cpu:       0.0
 (Enter /home/dylan/Gaussian/g03/l502.exe)
 Closed shell SCF:
 Requested convergence on RMS density matrix=1.00D-08 within 128 cycles.
 Requested convergence on MAX density matrix=1.00D-06.
 Requested convergence on             energy=1.00D-06.
 No special actions if energy rises.
 Using DIIS extrapolation, IDIIS=  1040.
 Two-electron integral symmetry not used.
 Keep R1 integrals in memory in canonical form, NReq=      861027.
 IEnd=     18878 IEndB=     18878 NGot=   6291456 MDV=   6271522
 LenX=   6271522
 Symmetry not used in FoFDir.
 MinBra= 0 MaxBra= 2 Meth= 1.
 IRaf=       0 NMat=   1 IRICut=       1 DoRegI=T DoRafI=F ISym2E= 0 JSym2E=0.

 Cycle   1  Pass 1  IDiag  1:
 E= -75.9211442138966    
 DIIS: error= 8.09D-02 at cycle   1 NSaved=   1.
 NSaved= 1 IEnMin= 1 EnMin= -75.9211442138966     IErMin= 1 ErrMin= 8.09D-02
 ErrMax= 8.09D-02 EMaxC= 1.00D-01 BMatC= 1.41D-01 BMatP= 1.41D-01
 IDIUse=3 WtCom= 1.91D-01 WtEn= 8.09D-01
 Coeff-Com:  0.100D+01
 Coeff-En:   0.100D+01
 Coeff:      0.100D+01
 Gap=     0.585 Goal=   None    Shift=    0.000
 GapD=    0.585 DampG=2.000 DampE=0.500 DampFc=1.0000 IDamp=-1.
 RMSDP=1.60D-02 MaxDP=1.23D-01              OVMax= 1.29D-01

 Cycle   2  Pass 1  IDiag  1:
 E= -75.9821284517781     Delta-E=       -0.060984237882 Rises=F Damp=F
 DIIS: error= 5.30D-02 at cycle   2 NSaved=   2.
 NSaved= 2 IEnMin= 2 EnMin= -75.9821284517781     IErMin= 2 ErrMin= 5.30D-02
 ErrMax= 5.30D-02 EMaxC= 1.00D-01 BMatC= 4.36D-02 BMatP= 1.41D-01
 IDIUse=3 WtCom= 4.70D-01 WtEn= 5.30D-01
 Coeff-Com:  0.341D+00 0.659D+00
 Coeff-En:   0.946D-01 0.905D+00
 Coeff:      0.211D+00 0.789D+00
 Gap=     0.736 Goal=   None    Shift=    0.000
 RMSDP=7.86D-03 MaxDP=5.55D-02 DE=-6.10D-02 OVMax= 5.08D-02

 Cycle   3  Pass 1  IDiag  1:
 E= -76.0088702742275     Delta-E=       -0.026741822449 Rises=F Damp=F
 DIIS: error= 1.16D-02 at cycle   3 NSaved=   3.
 NSaved= 3 IEnMin= 3 EnMin= -76.0088702742275     IErMin= 3 ErrMin= 1.16D-02
 ErrMax= 1.16D-02 EMaxC= 1.00D-01 BMatC= 2.63D-03 BMatP= 4.36D-02
 IDIUse=3 WtCom= 8.84D-01 WtEn= 1.16D-01
 Coeff-Com: -0.262D-01 0.169D+00 0.857D+00
 Coeff-En:   0.000D+00 0.000D+00 0.100D+01
 Coeff:     -0.231D-01 0.150D+00 0.874D+00
 Gap=     0.707 Goal=   None    Shift=    0.000
 RMSDP=1.57D-03 MaxDP=1.24D-02 DE=-2.67D-02 OVMax= 1.34D-02

 Cycle   4  Pass 1  IDiag  1:
 E= -76.0107266941473     Delta-E=       -0.001856419920 Rises=F Damp=F
 DIIS: error= 1.49D-03 at cycle   4 NSaved=   4.
 NSaved= 4 IEnMin= 4 EnMin= -76.0107266941473     IErMin= 4 ErrMin= 1.49D-03
 ErrMax= 1.49D-03 EMaxC= 1.00D-01 BMatC= 2.17D-05 BMatP= 2.63D-03
 IDIUse=3 WtCom= 9.85D-01 WtEn= 1.49D-02
 Coeff-Com:  0.574D-02-0.732D-01-0.231D+00 0.130D+01
 Coeff-En:   0.000D+00 0.000D+00 0.000D+00 0.100D+01
 Coeff:      0.565D-02-0.721D-01-0.228D+00 0.129D+01
 Gap=     0.711 Goal=   None    Shift=    0.000
 RMSDP=2.02D-04 MaxDP=1.37D-03 DE=-1.86D-03 OVMax= 1.59D-03

 Cycle   5  Pass 1  IDiag  1:
 E= -76.0107461264530     Delta-E=       -0.000019432306 Rises=F Damp=F
 DIIS: error= 1.45D-04 at cycle   5 NSaved=   5.
 NSaved= 5 IEnMin= 5 EnMin= -76.0107461264530     IErMin= 5 ErrMin= 1.45D-04
 ErrMax= 1.45D-04 EMaxC= 1.00D-01 BMatC= 1.53D-07 BMatP= 2.17D-05
 IDIUse=3 WtCom= 9.99D-01 WtEn= 1.45D-03
 Coeff-Com: -0.110D-04 0.618D-02 0.113D-01-0.213D+00 0.120D+01
 Coeff-En:   0.000D+00 0.000D+00 0.000D+00 0.000D+00 0.100D+01
 Coeff:     -0.110D-04 0.618D-02 0.113D-01-0.213D+00 0.120D+01
 Gap=     0.711 Goal=   None    Shift=    0.000
 RMSDP=4.13D-05 MaxDP=1.92D-04 DE=-1.94D-05 OVMax= 3.56D-04

 Cycle   6  Pass 1  IDiag  1:
 E= -76.0107464983125     Delta-E=       -0.000000371859 Rises=F Damp=F
 DIIS: error= 2.57D-05 at cycle   6 NSaved=   6.
 NSaved= 6 IEnMin= 6 EnMin= -76.0107464983125     IErMin= 6 ErrMin= 2.57D-05
 ErrMax= 2.57D-05 EMaxC= 1.00D-01 BMatC= 6.11D-09 BMatP= 1.53D-07
 IDIUse=1 WtCom= 1.00D+00 WtEn= 0.00D+00
 Coeff-Com: -0.221D-03 0.159D-02 0.696D-02-0.736D-02-0.282D+00 0.128D+01
 Coeff:     -0.221D-03 0.159D-02 0.696D-02-0.736D-02-0.282D+00 0.128D+01
 Gap=     0.711 Goal=   None    Shift=    0.000
 RMSDP=1.12D-05 MaxDP=5.57D-05 DE=-3.72D-07 OVMax= 9.34D-05

 Cycle   7  Pass 1  IDiag  1:
 E= -76.0107465146739     Delta-E=       -0.000000016361 Rises=F Damp=F
 DIIS: error= 4.10D-06 at cycle   7 NSaved=   7.
 NSaved= 7 IEnMin= 7 EnMin= -76.0107465146739     IErMin= 7 ErrMin= 4.10D-06
 ErrMax= 4.10D-06 EMaxC= 1.00D-01 BMatC= 1.88D-10 BMatP= 6.11D-09
 IDIUse=1 WtCom= 1.00D+00 WtEn= 0.00D+00
 Coeff-Com:  0.854D-04-0.791D-03-0.307D-02 0.866D-02 0.856D-01-0.505D+00
 Coeff-Com:  0.141D+01
 Coeff:      0.854D-04-0.791D-03-0.307D-02 0.866D-02 0.856D-01-0.505D+00
 Coeff:      0.141D+01
 Gap=     0.711 Goal=   None    Shift=    0.000
 RMSDP=1.41D-06 MaxDP=6.30D-06 DE=-1.64D-08 OVMax= 1.33D-05

 Cycle   8  Pass 1  IDiag  1:
 E= -76.0107465151470     Delta-E=       -0.000000000473 Rises=F Damp=F
 DIIS: error= 7.34D-07 at cycle   8 NSaved=   8.
 NSaved= 8 IEnMin= 8 EnMin= -76.0107465151470     IErMin= 8 ErrMin= 7.34D-07
 ErrMax= 7.34D-07 EMaxC= 1.00D-01 BMatC= 5.71D-12 BMatP= 1.88D-10
 IDIUse=1 WtCom= 1.00D+00 WtEn= 0.00D+00
 Coeff-Com: -0.101D-04 0.127D-03 0.439D-03-0.224D-02-0.471D-02 0.562D-01
 Coeff-Com: -0.323D+00 0.127D+01
 Coeff:     -0.101D-04 0.127D-03 0.439D-03-0.224D-02-0.471D-02 0.562D-01
 Coeff:     -0.323D+00 0.127D+01
 Gap=     0.711 Goal=   None    Shift=    0.000
 RMSDP=2.61D-07 MaxDP=1.33D-06 DE=-4.73D-10 OVMax= 2.29D-06

 Cycle   9  Pass 1  IDiag  1:
 E= -76.0107465151612     Delta-E=       -0.000000000014 Rises=F Damp=F
 DIIS: error= 6.71D-08 at cycle   9 NSaved=   9.
 NSaved= 9 IEnMin= 9 EnMin= -76.0107465151612     IErMin= 9 ErrMin= 6.71D-08
 ErrMax= 6.71D-08 EMaxC= 1.00D-01 BMatC= 9.27D-14 BMatP= 5.71D-12
 IDIUse=1 WtCom= 1.00D+00 WtEn= 0.00D+00
 Coeff-Com:  0.770D-06-0.176D-04-0.523D-04 0.444D-03-0.613D-03-0.517D-02
 Coeff-Com:  0.652D-01-0.385D+00 0.132D+01
 Coeff:      0.770D-06-0.176D-04-0.523D-04 0.444D-03-0.613D-03-0.517D-02
 Coeff:      0.652D-01-0.385D+00 0.132D+01
 Gap=     0.711 Goal=   None    Shift=    0.000
 RMSDP=4.45D-08 MaxDP=2.56D-07 DE=-1.42D-11 OVMax= 3.97D-07

 Cycle  10  Pass 1  IDiag  1:
 E= -76.0107465151615     Delta-E=        0.000000000000 Rises=F Damp=F
 DIIS: error= 1.22D-08 at cycle  10 NSaved=  10.
 NSaved=10 IEnMin=10 EnMin= -76.0107465151615     IErMin=10 ErrMin= 1.22D-08
 ErrMax= 1.22D-08 EMaxC= 1.00D-01 BMatC= 1.59D-15 BMatP= 9.27D-14
 IDIUse=1 WtCom= 1.00D+00 WtEn= 0.00D+00
 Coeff-Com:  0.605D-08 0.189D-05 0.458D-05-0.693D-04 0.248D-03 0.176D-03
 Coeff-Com: -0.903D-02 0.597D-01-0.262D+00 0.121D+01
 Coeff:      0.605D-08 0.189D-05 0.458D-05-0.693D-04 0.248D-03 0.176D-03
 Coeff:     -0.903D-02 0.597D-01-0.262D+00 0.121D+01
 Gap=     0.711 Goal=   None    Shift=    0.000
 RMSDP=3.62D-09 MaxDP=1.95D-08 DE=-2.84D-13 OVMax= 3.49D-08

 SCF Done:  E(RHF) =  -76.0107465152     A.U. after   10 cycles
             Convg  =    0.3623D-08             -V/T =  2.0020
             S**2   =   0.0000
 KE= 7.585969743658D+01 PE=-1.990839118062D+02 EE= 3.792480870640D+01
 Leave Link  502 at Wed Dec  3 16:49:39 2014, MaxMem=    6291456 cpu:       0.0
 (Enter /home/dylan/Gaussian/g03/l801.exe)
 Range of M.O.s used for correlation:     1    19
 NBasis=    19 NAE=     5 NBE=     5 NFC=     0 NFV=     0
 NROrb=     19 NOA=     5 NOB=     5 NVA=    14 NVB=    14
 Leave Link  801 at Wed Dec  3 16:49:40 2014, MaxMem=    6291456 cpu:       0.0
 (Enter /home/dylan/Gaussian/g03/l1002.exe)
 Minotr:  Closed-shell wavefunction.
          Direct CPHF calculation.
          Solving linear equations simultaneously.
          Differentiating once with respect to electric field.
                with respect to dipole field.
          Electric field/nuclear overlap derivatives assumed to be zero.
          Requested convergence is 1.0D-08 RMS, and 1.0D-07 maximum.
          Secondary convergence is 1.0D-12 RMS, and 1.0D-12 maximum.
          NewPWx=F KeepS1=T KeepF1=T KeepIn=T MapXYZ=F.
          MDV=       6291430 using IRadAn=       2.
          Store integrals in memory, NReq=      838356.
 Symmetry not used in FoFDir.
 MinBra= 0 MaxBra= 2 Meth= 1.
 IRaf=       0 NMat=   1 IRICut=       1 DoRegI=T DoRafI=F ISym2E= 0 JSym2E=0.
          There are   3 degrees of freedom in the 1st order CPHF.
     3 vectors were produced by pass  0.
 AX will form   3 AO Fock derivatives at one time.
     3 vectors were produced by pass  1.
     3 vectors were produced by pass  2.
     3 vectors were produced by pass  3.
     3 vectors were produced by pass  4.
     3 vectors were produced by pass  5.
     3 vectors were produced by pass  6.
     3 vectors were produced by pass  7.
     1 vectors were produced by pass  8.
 Inv2:  IOpt= 1 Iter= 1 AM= 8.20D-16 Conv= 1.00D-12.
 Inverted reduced A of dimension   25 with in-core refinement.
 End of Minotr Frequency-dependent properties file   721 does not exist.
 Leave Link 1002 at Wed Dec  3 16:49:40 2014, MaxMem=    6291456 cpu:       0.0
 (Enter /home/dylan/Gaussian/g03/l1101.exe)
 Using compressed storage, NAtomX=     3.
 Will process   4 centers per pass.
 Leave Link 1101 at Wed Dec  3 16:49:40 2014, MaxMem=    6291456 cpu:       0.1
 (Enter /home/dylan/Gaussian/g03/l1102.exe)
 Use density number 0.
 Symmetrizing basis deriv contribution to polar:
 IMax=3 JMax=2 DiffMx= 0.00D+00
 Leave Link 1102 at Wed Dec  3 16:49:40 2014, MaxMem=    6291456 cpu:       0.0
 (Enter /home/dylan/Gaussian/g03/l1110.exe)
 Forming Gx(P) for the SCF density, NAtomX=     3.
 Integral derivatives from FoFDir, PRISM(SPDF).
 Do as many integral derivatives as possible in FoFDir.
 G2DrvN: MDV=       6291430.
 G2DrvN: will do    4 centers at a time, making    1 passes doing MaxLOS=2.
 Symmetry not used in FoFDir.
 MinBra= 0 MaxBra= 2 Meth= 1.
 IRaf=       0 NMat=   1 IRICut=       1 DoRegI=T DoRafI=F ISym2E= 0 JSym2E=0.
 FoFDir/FoFCou used for L=0 through L=2.
 Leave Link 1110 at Wed Dec  3 16:49:40 2014, MaxMem=    6291456 cpu:       0.1
 (Enter /home/dylan/Gaussian/g03/l1002.exe)
 Minotr:  Closed-shell wavefunction.
 DoAtom=TTT
          Direct CPHF calculation.
          Solving linear equations simultaneously.
          Differentiating once with respect to electric field.
                with respect to dipole field.
          Differentiating once with respect to nuclear coordinates.
          Requested convergence is 1.0D-08 RMS, and 1.0D-07 maximum.
          Secondary convergence is 1.0D-12 RMS, and 1.0D-12 maximum.
          NewPWx=T KeepS1=F KeepF1=F KeepIn=T MapXYZ=F.
          MDV=       6291427 using IRadAn=       2.
          Store integrals in memory, NReq=      838419.
 Symmetry not used in FoFDir.
 MinBra= 0 MaxBra= 2 Meth= 1.
 IRaf=       0 NMat=   1 IRICut=       1 DoRegI=T DoRafI=F ISym2E= 0 JSym2E=0.
          There are  12 degrees of freedom in the 1st order CPHF.
     9 vectors were produced by pass  0.
 AX will form   9 AO Fock derivatives at one time.
     9 vectors were produced by pass  1.
     9 vectors were produced by pass  2.
     9 vectors were produced by pass  3.
     9 vectors were produced by pass  4.
     7 vectors were produced by pass  5.
     3 vectors were produced by pass  6.
     1 vectors were produced by pass  7.
 Inv2:  IOpt= 1 Iter= 1 AM= 1.31D-15 Conv= 1.00D-12.
 Inverted reduced A of dimension   56 with in-core refinement.
 FullF1:  Do perturbations    1 to    12.
 Isotropic polarizability for W=    0.000000        4.75 Bohr**3.
 FullF1:  Do perturbations    1 to     6.
 End of Minotr Frequency-dependent properties file   721 does not exist.
 Leave Link 1002 at Wed Dec  3 16:49:40 2014, MaxMem=    6291456 cpu:       0.1
 (Enter /home/dylan/Gaussian/g03/l601.exe)
 Copying SCF densities to generalized density rwf, ISCF=0 IROHF=0.

 **********************************************************************

            Population analysis using the SCF density.

 **********************************************************************

 Alpha  occ. eigenvalues --  -20.55787  -1.34614  -0.71427  -0.57080  -0.49821
 Alpha virt. eigenvalues --    0.21302   0.30687   1.03169   1.13340   1.16803
 Alpha virt. eigenvalues --    1.17848   1.38512   1.43121   2.02056   2.03058
 Alpha virt. eigenvalues --    2.06723   2.63564   2.96581   3.97771
          Condensed to atoms (all electrons):
              1          2          3
     1  O    8.332896   0.267928   0.267928
     2  H    0.267928   0.316179  -0.018484
     3  H    0.267928  -0.018484   0.316179
 Mulliken atomic charges:
              1
     1  O   -0.868753
     2  H    0.434376
     3  H    0.434376
 Sum of Mulliken charges=   0.00000
 Atomic charges with hydrogens summed into heavy atoms:
              1
     1  O    0.000000
     2  H    0.000000
     3  H    0.000000
 Sum of Mulliken charges=   0.00000
 APT atomic charges:
              1
     1  O   -0.600497
     2  H    0.300249
     3  H    0.300249
 Sum of APT charges=   0.00000
 APT Atomic charges with hydrogens summed into heavy atoms:
              1
     1  O    0.000000
     2  H    0.000000
     3  H    0.000000
 Sum of APT charges=   0.00000
 Electronic spatial extent (au):  <R**2>=   206.3311
 Charge=     0.0000 electrons
 Dipole moment (field-independent basis, Debye):
    X=    -1.3386    Y=    -1.3386    Z=    -1.1187  Tot=     2.1989
 Quadrupole moment (field-independent basis, Debye-Ang):
   XX=    -4.0855   YY=   -11.5669   ZZ=    -6.3951
   XY=    -0.6205   XZ=    -0.7136   YZ=    -3.8399
 Traceless Quadrupole moment (field-independent basis, Debye-Ang):
   XX=     3.2637   YY=    -4.2178   ZZ=     0.9541
   XY=    -0.6205   XZ=    -0.7136   YZ=    -3.8399
 Octapole moment (field-independent basis, Debye-Ang**2):
  XXX=    12.3007  YYY=   -53.3105  ZZZ=   -14.9760  XYY=     7.5246
  XXY=   -10.8776  XXZ=    -3.0408  XZZ=     3.2096  YZZ=   -14.6615
  YYZ=   -15.7654  XYZ=     0.9554
 Hexadecapole moment (field-independent basis, Debye-Ang**3):
 XXXX=   -26.3963 YYYY=  -197.1757 ZZZZ=   -30.8525 XXXY=    27.8496
 XXXZ=     9.1009 YYYX=    41.8834 YYYZ=   -57.5227 ZZZX=     9.9326
 ZZZY=   -31.9178 XXYY=   -32.2469 XXZZ=    -6.8288 YYZZ=   -38.8310
 XXYZ=    -9.2539 YYXZ=    10.1557 ZZXY=     9.1037
 N-N= 9.288659148097D+00 E-N=-1.990839119073D+02  KE= 7.585969743658D+01
  Exact polarizability:   4.035   1.257   4.035  -0.579  -0.579   6.194
 Approx polarizability:   3.357   0.994   3.357  -0.413  -0.413   4.994
 No NMR shielding tensors so no spin-rotation constants.
 Leave Link  601 at Wed Dec  3 16:49:40 2014, MaxMem=    6291456 cpu:       0.1
 (Enter /home/dylan/Gaussian/g03/l701.exe)
 Compute integral second derivatives.
 ... and contract with generalized density number  0.
 Leave Link  701 at Wed Dec  3 16:49:41 2014, MaxMem=    6291456 cpu:       0.1
 (Enter /home/dylan/Gaussian/g03/l702.exe)
 L702 exits ... SP integral derivatives will be done elsewhere.
 Leave Link  702 at Wed Dec  3 16:49:41 2014, MaxMem=    6291456 cpu:       0.0
 (Enter /home/dylan/Gaussian/g03/l703.exe)
 Compute integral second derivatives, UseDBF=F.
 Integral derivatives from FoFDir, PRISM(SPD) Scalar Rys(F).
 Symmetry not used in FoFDir.
 MinBra= 0 MaxBra= 2 Meth= 1.
 IRaf=       0 NMat=   1 IRICut=       1 DoRegI=T DoRafI=F ISym2E= 0 JSym2E=0.
 Leave Link  703 at Wed Dec  3 16:49:41 2014, MaxMem=    6291456 cpu:       0.2
 (Enter /home/dylan/Gaussian/g03/l716.exe)
 Dipole        =-5.26646179D-01-5.26646179D-01-4.40145308D-01
 Polarizability= 4.03510237D+00 1.25670581D+00 4.03510237D+00
                -5.79347570D-01-5.79347571D-01 6.19404481D+00
 HyperPolar    =-6.76706322D+00-6.43907496D+00-6.43907496D+00
                -6.76706321D+00 4.02969490D+00 4.16674720D+00
                 4.02969490D+00-4.00966434D+00-4.00966434D+00
                -2.24475788D+01
 Full mass-weighted force constant matrix:
 Low frequencies ---  -15.1194  -13.3098   -8.8024   -0.0009   -0.0001    0.0007
 Low frequencies --- 1826.5597 4070.5957 4188.8254
 Diagonal vibrational polarizability:
        0.3431318       0.3431318       0.2976625
 Diagonal vibrational hyperpolarizability:
       -1.8073930      -1.8073930      -2.2302906
 Harmonic frequencies (cm**-1), IR intensities (KM/Mole), Raman scattering
 activities (A**4/AMU), depolarization ratios for plane and unpolarized
 incident light, reduced masses (AMU), force constants (mDyne/A),
 and normal coordinates:
                     1                      2                      3
                    A"                     A"                     A"
 Frequencies --  1826.5597              4070.5957              4188.8254
 Red. masses --     1.0823                 1.0455                 1.0828
 Frc consts  --     2.1275                10.2071                11.1944
 IR Inten    --   107.2678                18.2100                58.1033
 Raman Activ --     5.7235                75.5317                39.0865
 Depolar (P) --     0.5300                 0.1830                 0.7500
 Depolar (U) --     0.6928                 0.3094                 0.8571
 Atom AN      X      Y      Z        X      Y      Z        X      Y      Z
   1   8     0.04   0.04   0.04    -0.03  -0.03  -0.03    -0.03  -0.03   0.06
   2   1    -0.19  -0.19  -0.65     0.45   0.45  -0.30     0.46   0.46  -0.27
   3   1    -0.50  -0.50   0.09     0.03   0.03   0.70    -0.06  -0.06  -0.70

 -------------------
 - Thermochemistry -
 -------------------
 Temperature   298.150 Kelvin.  Pressure   1.00000 Atm.
 Atom  1 has atomic number  8 and mass  15.99491
 Atom  2 has atomic number  1 and mass   1.00783
 Atom  3 has atomic number  1 and mass   1.00783
 Molecular mass:    18.01056 amu.
 Principal axes and moments of inertia in atomic units:
                           1         2         3
     EIGENVALUES --     2.10190   4.09269   6.19459
           X           -0.35975   0.60875   0.70711
           Y           -0.35975   0.60875  -0.70711
           Z            0.86091   0.50876   0.00000
 This molecule is an asymmetric top.
 Rotational symmetry number  1.
 Rotational temperatures (Kelvin)     41.20740    21.16303    13.98216
 Rotational constants (GHZ):         858.62384   440.96654   291.34132
 Zero-point vibrational energy      60327.6 (Joules/Mol)
                                   14.41863 (Kcal/Mol)
 Vibrational temperatures:   2628.01  5856.67  6026.78
          (Kelvin)
 
 Zero-point correction=                           0.022978 (Hartree/Particle)
 Thermal correction to Energy=                    0.025811
 Thermal correction to Enthalpy=                  0.026756
 Thermal correction to Gibbs Free Energy=         0.004726
 Sum of electronic and zero-point Energies=            -75.987769
 Sum of electronic and thermal Energies=               -75.984935
 Sum of electronic and thermal Enthalpies=             -75.983991
 Sum of electronic and thermal Free Energies=          -76.006020
 
                     E (Thermal)             CV                S
                      KCal/Mol        Cal/Mol-Kelvin    Cal/Mol-Kelvin
 Total                   16.197              5.985             46.364
 Electronic               0.000              0.000              0.000
 Translational            0.889              2.981             34.608
 Rotational               0.889              2.981             11.753
 Vibrational             14.419              0.023              0.003
                       Q            Log10(Q)             Ln(Q)
 Total Bot       0.669969D-02         -2.173945         -5.005694
 Total V=0       0.248299D+09          8.394974         19.330142
 Vib (Bot)       0.269864D-10        -10.568855        -24.335688
 Vib (V=0)       0.100015D+01          0.000065          0.000149
 Electronic      0.100000D+01          0.000000          0.000000
 Translational   0.300432D+07          6.477746         14.915562
 Rotational      0.826349D+02          1.917163          4.414432
 
                                                         h2o HF/6-31g(d) opt
                                                             IR Spectrum
 
      4  4                                                                   1                                                       
      1  0                                                                   8                                                       
      8  7                                                                   2                                                       
      9  1                                                                   7                                                       
 
      X  X                                                                   X                                                       
      X  X                                                                   X                                                       
      X  X                                                                   X                                                       
      X                                                                      X                                                       
      X                                                                      X                                                       
      X                                                                      X                                                       
      X                                                                      X                                                       
      X                                                                      X                                                       
      X                                                                      X                                                       
      X                                                                      X                                                       
      X                                                                      X                                                       
                                                                             X                                                       
                                                                             X                                                       
                                                                             X                                                       
                                                                             X                                                       
                                                                             X                                                       
                                                                             X                                                       
                                                                             X                                                       
                                                                             X                                                       
                                                                             X                                                       
 
 
                                                         h2o HF/6-31g(d) opt
                                                            Raman Spectrum
 
      4  4                                                                   1                                                       
      1  0                                                                   8                                                       
      8  7                                                                   2                                                       
      9  1                                                                   7                                                       
 
      X  X                                                                   X                                                       
      X  X                                                                   X                                                       
      X  X                                                                                                                           
      X  X                                                                                                                           
      X  X                                                                                                                           
      X  X                                                                                                                           
      X  X                                                                                                                           
      X  X                                                                                                                           
      X  X                                                                                                                           
      X  X                                                                                                                           
         X                                                                                                                           
         X                                                                                                                           
         X                                                                                                                           
         X                                                                                                                           
         X                                                                                                                           
         X                                                                                                                           
         X                                                                                                                           
         X                                                                                                                           
         X                                                                                                                           
         X                                                                                                                           
 
 -------------------------------------------------------------------
 Center     Atomic                   Forces (Hartrees/Bohr)
 Number     Number              X              Y              Z
 -------------------------------------------------------------------
    1          8           0.000003825    0.000003825    0.000002105
    2          1          -0.000006588   -0.000006588    0.000009435
    3          1           0.000002763    0.000002763   -0.000011540
 -------------------------------------------------------------------
 Cartesian Forces:  Max     0.000011540 RMS     0.000006307
 ------------------------------------------------------------------------
           Internal Coordinate Forces (Hartree/Bohr or radian)
 Cent Atom N1     Length/X     N2     Alpha/Y      N3      Beta/Z       J
 ------------------------------------------------------------------------
   1  O         0.000004(   1)      0.000004(   4)      0.000002(   7)
   2  H        -0.000007(   2)     -0.000007(   5)      0.000009(   8)
   3  H         0.000003(   3)      0.000003(   6)     -0.000012(   9)
 ------------------------------------------------------------------------
 Internal  Forces:  Max     0.000011540 RMS     0.000006307
 Force constants in Cartesian coordinates: 
                1             2             3             4             5
      1  0.299623D+00
      2  0.299628D+00  0.299623D+00
      3 -0.777523D-01 -0.777523D-01  0.720329D+00
      4 -0.264682D+00 -0.264685D+00  0.154015D+00  0.261511D+00
      5 -0.264685D+00 -0.264682D+00  0.154015D+00  0.261517D+00  0.261511D+00
      6  0.102626D+00  0.102626D+00 -0.130425D+00 -0.144709D+00 -0.144709D+00
      7 -0.349405D-01 -0.349428D-01 -0.762627D-01  0.317103D-02  0.316800D-02
      8 -0.349428D-01 -0.349405D-01 -0.762627D-01  0.316800D-02  0.317103D-02
      9 -0.248741D-01 -0.248741D-01 -0.589905D+00 -0.930634D-02 -0.930634D-02
                6             7             8             9
      6  0.149607D+00
      7  0.420823D-01  0.317695D-01
      8  0.420823D-01  0.317748D-01  0.317695D-01
      9 -0.191821D-01  0.341805D-01  0.341805D-01  0.609087D+00
 Force constants in internal coordinates: 
                1             2             3             4             5
      1  0.299623D+00
      2 -0.264682D+00  0.261511D+00
      3 -0.349405D-01  0.317103D-02  0.317695D-01
      4  0.299628D+00 -0.264685D+00 -0.349428D-01  0.299623D+00
      5 -0.264685D+00  0.261517D+00  0.316800D-02 -0.264682D+00  0.261511D+00
      6 -0.349428D-01  0.316800D-02  0.317748D-01 -0.349405D-01  0.317103D-02
      7 -0.777523D-01  0.154015D+00 -0.762627D-01 -0.777523D-01  0.154015D+00
      8  0.102626D+00 -0.144709D+00  0.420823D-01  0.102626D+00 -0.144709D+00
      9 -0.248741D-01 -0.930634D-02  0.341805D-01 -0.248741D-01 -0.930634D-02
                6             7             8             9
      6  0.317695D-01
      7 -0.762627D-01  0.720329D+00
      8  0.420823D-01 -0.130425D+00  0.149607D+00
      9  0.341805D-01 -0.589905D+00 -0.191821D-01  0.609087D+00
 Leave Link  716 at Wed Dec  3 16:49:41 2014, MaxMem=    6291456 cpu:       0.0
 (Enter /home/dylan/Gaussian/g03/l103.exe)

 GradGradGradGradGradGradGradGradGradGradGradGradGradGradGradGradGradGrad
 Berny optimization.
 Search for a local minimum.
 Step number   1 out of a maximum of   2
 All quantities printed in internal units (Hartrees-Bohrs-Radians)
 Second derivative matrix not updated -- analytic derivatives used.
 The second derivative matrix:
                          X1        Y1        Z1        X2        Y2
           X1           0.29962
           Y1           0.29963   0.29962
           Z1          -0.07775  -0.07775   0.72033
           X2          -0.26468  -0.26469   0.15402   0.26151
           Y2          -0.26469  -0.26468   0.15402   0.26152   0.26151
           Z2           0.10263   0.10263  -0.13042  -0.14471  -0.14471
           X3          -0.03494  -0.03494  -0.07626   0.00317   0.00317
           Y3          -0.03494  -0.03494  -0.07626   0.00317   0.00317
           Z3          -0.02487  -0.02487  -0.58990  -0.00931  -0.00931
                          Z2        X3        Y3        Z3
           Z2           0.14961
           X3           0.04208   0.03177
           Y3           0.04208   0.03177   0.03177
           Z3          -0.01918   0.03418   0.03418   0.60909
     Eigenvalues ---    0.18598   0.89522   1.12174
 Angle between quadratic step and forces=  40.65 degrees.
 Linear search not attempted -- first point.
 TrRot= -0.000003 -0.000003 -0.000003  0.000000  0.000000  0.000000
 Variable       Old X    -DE/DX   Delta X   Delta X   Delta X     New X
                                 (Linear)    (Quad)   (Total)
    X1       -1.47213   0.00000   0.00000  -0.00001  -0.00001  -1.47214
    Y1        3.80871   0.00000   0.00000  -0.00001  -0.00001   3.80870
    Z1        1.62956   0.00000   0.00000   0.00000  -0.00001   1.62955
    X2       -2.64441  -0.00001   0.00000  -0.00001  -0.00001  -2.64441
    Y2        2.63643  -0.00001   0.00000  -0.00001  -0.00001   2.63642
    Z2        2.30500   0.00001   0.00000   0.00004   0.00004   2.30503
    X3       -1.61916   0.00000   0.00000   0.00002   0.00002  -1.61914
    Y3        3.66168   0.00000   0.00000   0.00002   0.00002   3.66170
    Z3       -0.14849  -0.00001   0.00000  -0.00003  -0.00003  -0.14851
         Item               Value     Threshold  Converged?
 Maximum Force            0.000012     0.000450     YES
 RMS     Force            0.000006     0.000300     YES
 Maximum Displacement     0.000036     0.001800     YES
 RMS     Displacement     0.000018     0.001200     YES
 Predicted change in Energy=-4.031475D-10
 Optimization completed.
    -- Stationary point found.
 GradGradGradGradGradGradGradGradGradGradGradGradGradGradGradGradGradGrad

 Leave Link  103 at Wed Dec  3 16:49:41 2014, MaxMem=    6291456 cpu:       0.0
 (Enter /home/dylan/Gaussian/g03/l9999.exe)
 1\1\GINC-CRYSTALS\Freq\RHF\6-31G(d)\H2O1\DYLAN\03-Dec-2014\0\\#P HF/6-
 31g(d) nosym 6d 10f scf=tight freq\\h2o HF/6-31g(d) opt\\0,1\O,-0.7790
 2,2.01548,0.862324\H,-1.399359,1.395141,1.219751\H,-0.856821,1.937679,
 -0.078575\\Version=AM64L-G03RevE.01\HF=-76.0107465\RMSD=3.623e-09\RMSF
 =6.307e-06\ZeroPoint=0.0229776\Thermal=0.0258113\Dipole=-0.5266462,-0.
 5266462,-0.4401453\DipoleDeriv=-0.6415662,0.1568098,0.0215787,0.156809
 8,-0.6415662,0.0215787,0.0215783,0.0215783,-0.5183599,0.2859397,-0.113
 2484,0.030527,-0.1132484,0.2859397,0.030527,0.0021566,0.0021566,0.3288
 67,0.3556265,-0.0435614,-0.0521057,-0.0435614,0.3556265,-0.0521057,-0.
 0237348,-0.0237348,0.1894929\Polar=4.0351024,1.2567058,4.0351024,-0.57
 93476,-0.5793476,6.1940448\PolarDeriv=3.4396024,2.4831779,1.1596332,-0
 .0961019,-1.0488501,1.8036806,1.1596332,2.4831779,3.4396023,-1.0488501
 ,-0.0961019,1.8036806,-0.4756605,-0.32225,-0.4756605,1.3884259,1.38842
 59,6.3025767,-3.1992349,-2.2746037,-1.0746716,1.5700168,0.8683106,-0.9
 722009,-1.0746716,-2.2746037,-3.1992349,0.8683106,1.5700168,-0.9722009
 ,0.4924438,0.5255089,0.4924438,-1.285601,-1.285601,1.2324562,-0.240367
 5,-0.2085742,-0.0849616,-1.473915,0.1805394,-0.8314797,-0.0849616,-0.2
 085742,-0.2403675,0.1805394,-1.4739149,-0.8314797,-0.0167833,-0.203258
 9,-0.0167833,-0.1028249,-0.1028249,-7.5350329\HyperPolar=-6.7670632,-6
 .439075,-6.439075,-6.7670632,4.0296949,4.1667472,4.0296949,-4.0096643,
 -4.0096643,-22.4475788\PG=CS [SG(H2O1)]\NImag=0\\0.29962261,0.29962789
 ,0.29962261,-0.07775234,-0.07775234,0.72032934,-0.26468212,-0.26468510
 ,0.15401506,0.26151110,-0.26468510,-0.26468212,0.15401506,0.26151710,0
 .26151110,0.10262645,0.10262645,-0.13042457,-0.14470871,-0.14470871,0.
 14960669,-0.03494048,-0.03494280,-0.07626272,0.00317103,0.00316800,0.0
 4208227,0.03176945,-0.03494280,-0.03494048,-0.07626272,0.00316800,0.00
 317103,0.04208227,0.03177479,0.03176945,-0.02487411,-0.02487411,-0.589
 90477,-0.00930634,-0.00930634,-0.01918212,0.03418045,0.03418045,0.6090
 8689\\-0.00000382,-0.00000382,-0.00000211,0.00000659,0.00000659,-0.000
 00943,-0.00000276,-0.00000276,0.00001154\\\@


 IT'S WHAT YOU LEARN AFTER YOU KNOW IT ALL
 THAT COUNTS.
 Job cpu time:  0 days  0 hours  0 minutes  1.5 seconds.
 File lengths (MBytes):  RWF=     13 Int=      0 D2E=      0 Chk=      6 Scr=      1
 Normal termination of Gaussian 03 at Wed Dec  3 16:49:41 2014.
