my_job                                                                  
SP        RHF                                                         STO-3G              
Number of atoms                            I               25
Info1-9                                    I   N=           9
          38          36           0           0           0         110
           1           1           2
Charge                                     I                0
Multiplicity                               I                1
Number of electrons                        I              110
Number of alpha electrons                  I               55
Number of beta electrons                   I               55
Number of basis functions                  I               85
Number of independent functions            I               85
Number of point charges in /Mol/           I                0
Number of translation vectors              I                0
Atomic numbers                             I   N=          25
           8           8           8           8           7           7
           6           6           6           6           6           6
           6           6           6           1           1           1
           1           1           1           1           1           1
           1
Nuclear charges                            R   N=          25
  8.00000000E+00  8.00000000E+00  8.00000000E+00  8.00000000E+00  7.00000000E+00
  7.00000000E+00  6.00000000E+00  6.00000000E+00  6.00000000E+00  6.00000000E+00
  6.00000000E+00  6.00000000E+00  6.00000000E+00  6.00000000E+00  6.00000000E+00
  1.00000000E+00  1.00000000E+00  1.00000000E+00  1.00000000E+00  1.00000000E+00
  1.00000000E+00  1.00000000E+00  1.00000000E+00  1.00000000E+00  1.00000000E+00
Current cartesian coordinates              R   N=          75
  4.21044210E+00  5.06520303E+00  1.27319391E+01  5.67694517E-01 -9.11753175E-01
  1.69561328E+01  2.97557222E+00  2.90344326E+00  1.61192524E+01 -1.66408527E+00
 -3.74635182E+00  1.47755267E+01  6.87122752E+00  8.54403388E+00  1.54747727E+01
  1.10306640E+01  1.42342941E+01  1.87890235E+01  3.09750869E+00  3.23897169E+00
  1.37108645E+01  9.67226463E+00  1.23851139E+01  1.77215096E+01  9.43494338E+00
  1.22102235E+01  1.50468574E+01 -2.42510444E-01 -1.89381928E+00  1.48648144E+01
  1.90824545E+00  1.37428443E+00  1.19352022E+01  7.05571582E+00  8.65290856E+00
  1.80276056E+01  5.61182521E-01 -7.36758866E-01  1.24032590E+01  8.41420592E+00
  1.05238829E+01  1.92068892E+01  8.02886052E+00  1.02995347E+01  1.40062533E+01
  1.82968197E+00  1.02062786E+00  1.66063256E+01  2.20483230E+00  1.87045093E+00
  9.92154030E+00  1.03101341E+01  1.35835650E+01  1.38290328E+01  8.52726256E+00
  1.05803631E+01  2.12768536E+01 -1.23924460E-01 -1.80233953E+00  1.07727788E+01
  7.75160746E+00  1.01056771E+01  1.19501537E+01  6.03529772E+00  7.18211582E+00
  1.90820954E+01  1.19540844E+01  1.55095550E+01  1.76585780E+01  5.81771276E+00
  7.08256693E+00  1.45879676E+01  1.10262232E+01  1.44805443E+01  2.07209850E+01
Force Field                                I                0
Int Atom Types                             I   N=          25
           0           0           0           0           0           0
           0           0           0           0           0           0
           0           0           0           0           0           0
           0           0           0           0           0           0
           0
MM charges                                 R   N=          25
  0.00000000E+00  0.00000000E+00  0.00000000E+00  0.00000000E+00  0.00000000E+00
  0.00000000E+00  0.00000000E+00  0.00000000E+00  0.00000000E+00  0.00000000E+00
  0.00000000E+00  0.00000000E+00  0.00000000E+00  0.00000000E+00  0.00000000E+00
  0.00000000E+00  0.00000000E+00  0.00000000E+00  0.00000000E+00  0.00000000E+00
  0.00000000E+00  0.00000000E+00  0.00000000E+00  0.00000000E+00  0.00000000E+00
Integer atomic weights                     I   N=          25
          16          16          16          16          14          14
          12          12          12          12          12          12
          12          12          12           1           1           1
           1           1           1           1           1           1
           1
Real atomic weights                        R   N=          25
  1.59949146E+01  1.59949146E+01  1.59949146E+01  1.59949146E+01  1.40030740E+01
  1.40030740E+01  1.20000000E+01  1.20000000E+01  1.20000000E+01  1.20000000E+01
  1.20000000E+01  1.20000000E+01  1.20000000E+01  1.20000000E+01  1.20000000E+01
  1.00782504E+00  1.00782504E+00  1.00782504E+00  1.00782504E+00  1.00782504E+00
  1.00782504E+00  1.00782504E+00  1.00782504E+00  1.00782504E+00  1.00782504E+00
Atom fragment info                         I   N=          25
           0           0           0           0           0           0
           0           0           0           0           0           0
           0           0           0           0           0           0
           0           0           0           0           0           0
           0
Atom residue num                           I   N=          25
           0           0           0           0           0           0
           0           0           0           0           0           0
           0           0           0           0           0           0
           0           0           0           0           0           0
           0
Nuclear spins                              I   N=          25
           0           0           0           0           2           2
           0           0           0           0           0           0
           0           0           0           1           1           1
           1           1           1           1           1           1
           1
Nuclear ZEff                               R   N=          25
 -5.60000000E+00 -5.60000000E+00 -5.60000000E+00 -5.60000000E+00 -4.55000000E+00
 -4.55000000E+00 -3.60000000E+00 -3.60000000E+00 -3.60000000E+00 -3.60000000E+00
 -3.60000000E+00 -3.60000000E+00 -3.60000000E+00 -3.60000000E+00 -3.60000000E+00
 -1.00000000E+00 -1.00000000E+00 -1.00000000E+00 -1.00000000E+00 -1.00000000E+00
 -1.00000000E+00 -1.00000000E+00 -1.00000000E+00 -1.00000000E+00 -1.00000000E+00
Nuclear ZNuc                               R   N=          25
  8.00000000E+00  8.00000000E+00  8.00000000E+00  8.00000000E+00  7.00000000E+00
  7.00000000E+00  6.00000000E+00  6.00000000E+00  6.00000000E+00  6.00000000E+00
  6.00000000E+00  6.00000000E+00  6.00000000E+00  6.00000000E+00  6.00000000E+00
  1.00000000E+00  1.00000000E+00  1.00000000E+00  1.00000000E+00  1.00000000E+00
  1.00000000E+00  1.00000000E+00  1.00000000E+00  1.00000000E+00  1.00000000E+00
Nuclear QMom                               R   N=          25
  0.00000000E+00  0.00000000E+00  0.00000000E+00  0.00000000E+00  2.04400000E+00
  2.04400000E+00  0.00000000E+00  0.00000000E+00  0.00000000E+00  0.00000000E+00
  0.00000000E+00  0.00000000E+00  0.00000000E+00  0.00000000E+00  0.00000000E+00
  0.00000000E+00  0.00000000E+00  0.00000000E+00  0.00000000E+00  0.00000000E+00
  0.00000000E+00  0.00000000E+00  0.00000000E+00  0.00000000E+00  0.00000000E+00
Nuclear GFac                               R   N=          25
  0.00000000E+00  0.00000000E+00  0.00000000E+00  0.00000000E+00  4.03761000E-01
  4.03761000E-01  0.00000000E+00  0.00000000E+00  0.00000000E+00  0.00000000E+00
  0.00000000E+00  0.00000000E+00  0.00000000E+00  0.00000000E+00  0.00000000E+00
  2.79284600E+00  2.79284600E+00  2.79284600E+00  2.79284600E+00  2.79284600E+00
  2.79284600E+00  2.79284600E+00  2.79284600E+00  2.79284600E+00  2.79284600E+00
MicOpt                                     I   N=          25
          -1          -1          -1          -1          -1          -1
          -1          -1          -1          -1          -1          -1
          -1          -1          -1          -1          -1          -1
          -1          -1          -1          -1          -1          -1
          -1
Number of contracted shells                I               40
Number of primitive shells                 I              120
Pure/Cartesian d shells                    I                1
Pure/Cartesian f shells                    I                1
Highest angular momentum                   I                1
Largest degree of contraction              I                3
Shell types                                I   N=          40
           0          -1           0          -1           0          -1
           0          -1           0          -1           0          -1
           0          -1           0          -1           0          -1
           0          -1           0          -1           0          -1
           0          -1           0          -1           0          -1
           0           0           0           0           0           0
           0           0           0           0
Number of primitives per shell             I   N=          40
           3           3           3           3           3           3
           3           3           3           3           3           3
           3           3           3           3           3           3
           3           3           3           3           3           3
           3           3           3           3           3           3
           3           3           3           3           3           3
           3           3           3           3
Shell to atom map                          I   N=          40
           1           1           2           2           3           3
           4           4           5           5           6           6
           7           7           8           8           9           9
          10          10          11          11          12          12
          13          13          14          14          15          15
          16          17          18          19          20          21
          22          23          24          25
Primitive exponents                        R   N=         120
  1.30709321E+02  2.38088661E+01  6.44360831E+00  5.03315132E+00  1.16959612E+00
  3.80388960E-01  1.30709321E+02  2.38088661E+01  6.44360831E+00  5.03315132E+00
  1.16959612E+00  3.80388960E-01  1.30709321E+02  2.38088661E+01  6.44360831E+00
  5.03315132E+00  1.16959612E+00  3.80388960E-01  1.30709321E+02  2.38088661E+01
  6.44360831E+00  5.03315132E+00  1.16959612E+00  3.80388960E-01  9.91061690E+01
  1.80523124E+01  4.88566024E+00  3.78045588E+00  8.78496645E-01  2.85714374E-01
  9.91061690E+01  1.80523124E+01  4.88566024E+00  3.78045588E+00  8.78496645E-01
  2.85714374E-01  7.16168373E+01  1.30450963E+01  3.53051216E+00  2.94124936E+00
  6.83483096E-01  2.22289916E-01  7.16168373E+01  1.30450963E+01  3.53051216E+00
  2.94124936E+00  6.83483096E-01  2.22289916E-01  7.16168373E+01  1.30450963E+01
  3.53051216E+00  2.94124936E+00  6.83483096E-01  2.22289916E-01  7.16168373E+01
  1.30450963E+01  3.53051216E+00  2.94124936E+00  6.83483096E-01  2.22289916E-01
  7.16168373E+01  1.30450963E+01  3.53051216E+00  2.94124936E+00  6.83483096E-01
  2.22289916E-01  7.16168373E+01  1.30450963E+01  3.53051216E+00  2.94124936E+00
  6.83483096E-01  2.22289916E-01  7.16168373E+01  1.30450963E+01  3.53051216E+00
  2.94124936E+00  6.83483096E-01  2.22289916E-01  7.16168373E+01  1.30450963E+01
  3.53051216E+00  2.94124936E+00  6.83483096E-01  2.22289916E-01  7.16168373E+01
  1.30450963E+01  3.53051216E+00  2.94124936E+00  6.83483096E-01  2.22289916E-01
  3.42525091E+00  6.23913730E-01  1.68855404E-01  3.42525091E+00  6.23913730E-01
  1.68855404E-01  3.42525091E+00  6.23913730E-01  1.68855404E-01  3.42525091E+00
  6.23913730E-01  1.68855404E-01  3.42525091E+00  6.23913730E-01  1.68855404E-01
  3.42525091E+00  6.23913730E-01  1.68855404E-01  3.42525091E+00  6.23913730E-01
  1.68855404E-01  3.42525091E+00  6.23913730E-01  1.68855404E-01  3.42525091E+00
  6.23913730E-01  1.68855404E-01  3.42525091E+00  6.23913730E-01  1.68855404E-01
Contraction coefficients                   R   N=         120
  1.54328967E-01  5.35328142E-01  4.44634542E-01 -9.99672292E-02  3.99512826E-01
  7.00115469E-01  1.54328967E-01  5.35328142E-01  4.44634542E-01 -9.99672292E-02
  3.99512826E-01  7.00115469E-01  1.54328967E-01  5.35328142E-01  4.44634542E-01
 -9.99672292E-02  3.99512826E-01  7.00115469E-01  1.54328967E-01  5.35328142E-01
  4.44634542E-01 -9.99672292E-02  3.99512826E-01  7.00115469E-01  1.54328967E-01
  5.35328142E-01  4.44634542E-01 -9.99672292E-02  3.99512826E-01  7.00115469E-01
  1.54328967E-01  5.35328142E-01  4.44634542E-01 -9.99672292E-02  3.99512826E-01
  7.00115469E-01  1.54328967E-01  5.35328142E-01  4.44634542E-01 -9.99672292E-02
  3.99512826E-01  7.00115469E-01  1.54328967E-01  5.35328142E-01  4.44634542E-01
 -9.99672292E-02  3.99512826E-01  7.00115469E-01  1.54328967E-01  5.35328142E-01
  4.44634542E-01 -9.99672292E-02  3.99512826E-01  7.00115469E-01  1.54328967E-01
  5.35328142E-01  4.44634542E-01 -9.99672292E-02  3.99512826E-01  7.00115469E-01
  1.54328967E-01  5.35328142E-01  4.44634542E-01 -9.99672292E-02  3.99512826E-01
  7.00115469E-01  1.54328967E-01  5.35328142E-01  4.44634542E-01 -9.99672292E-02
  3.99512826E-01  7.00115469E-01  1.54328967E-01  5.35328142E-01  4.44634542E-01
 -9.99672292E-02  3.99512826E-01  7.00115469E-01  1.54328967E-01  5.35328142E-01
  4.44634542E-01 -9.99672292E-02  3.99512826E-01  7.00115469E-01  1.54328967E-01
  5.35328142E-01  4.44634542E-01 -9.99672292E-02  3.99512826E-01  7.00115469E-01
  1.54328967E-01  5.35328142E-01  4.44634542E-01  1.54328967E-01  5.35328142E-01
  4.44634542E-01  1.54328967E-01  5.35328142E-01  4.44634542E-01  1.54328967E-01
  5.35328142E-01  4.44634542E-01  1.54328967E-01  5.35328142E-01  4.44634542E-01
  1.54328967E-01  5.35328142E-01  4.44634542E-01  1.54328967E-01  5.35328142E-01
  4.44634542E-01  1.54328967E-01  5.35328142E-01  4.44634542E-01  1.54328967E-01
  5.35328142E-01  4.44634542E-01  1.54328967E-01  5.35328142E-01  4.44634542E-01
P(S=P) Contraction coefficients            R   N=         120
  0.00000000E+00  0.00000000E+00  0.00000000E+00  1.55916275E-01  6.07683719E-01
  3.91957393E-01  0.00000000E+00  0.00000000E+00  0.00000000E+00  1.55916275E-01
  6.07683719E-01  3.91957393E-01  0.00000000E+00  0.00000000E+00  0.00000000E+00
  1.55916275E-01  6.07683719E-01  3.91957393E-01  0.00000000E+00  0.00000000E+00
  0.00000000E+00  1.55916275E-01  6.07683719E-01  3.91957393E-01  0.00000000E+00
  0.00000000E+00  0.00000000E+00  1.55916275E-01  6.07683719E-01  3.91957393E-01
  0.00000000E+00  0.00000000E+00  0.00000000E+00  1.55916275E-01  6.07683719E-01
  3.91957393E-01  0.00000000E+00  0.00000000E+00  0.00000000E+00  1.55916275E-01
  6.07683719E-01  3.91957393E-01  0.00000000E+00  0.00000000E+00  0.00000000E+00
  1.55916275E-01  6.07683719E-01  3.91957393E-01  0.00000000E+00  0.00000000E+00
  0.00000000E+00  1.55916275E-01  6.07683719E-01  3.91957393E-01  0.00000000E+00
  0.00000000E+00  0.00000000E+00  1.55916275E-01  6.07683719E-01  3.91957393E-01
  0.00000000E+00  0.00000000E+00  0.00000000E+00  1.55916275E-01  6.07683719E-01
  3.91957393E-01  0.00000000E+00  0.00000000E+00  0.00000000E+00  1.55916275E-01
  6.07683719E-01  3.91957393E-01  0.00000000E+00  0.00000000E+00  0.00000000E+00
  1.55916275E-01  6.07683719E-01  3.91957393E-01  0.00000000E+00  0.00000000E+00
  0.00000000E+00  1.55916275E-01  6.07683719E-01  3.91957393E-01  0.00000000E+00
  0.00000000E+00  0.00000000E+00  1.55916275E-01  6.07683719E-01  3.91957393E-01
  0.00000000E+00  0.00000000E+00  0.00000000E+00  0.00000000E+00  0.00000000E+00
  0.00000000E+00  0.00000000E+00  0.00000000E+00  0.00000000E+00  0.00000000E+00
  0.00000000E+00  0.00000000E+00  0.00000000E+00  0.00000000E+00  0.00000000E+00
  0.00000000E+00  0.00000000E+00  0.00000000E+00  0.00000000E+00  0.00000000E+00
  0.00000000E+00  0.00000000E+00  0.00000000E+00  0.00000000E+00  0.00000000E+00
  0.00000000E+00  0.00000000E+00  0.00000000E+00  0.00000000E+00  0.00000000E+00
Coordinates of each shell                  R   N=         120
  4.21044210E+00  5.06520303E+00  1.27319391E+01  4.21044210E+00  5.06520303E+00
  1.27319391E+01  5.67694517E-01 -9.11753175E-01  1.69561328E+01  5.67694517E-01
 -9.11753175E-01  1.69561328E+01  2.97557222E+00  2.90344326E+00  1.61192524E+01
  2.97557222E+00  2.90344326E+00  1.61192524E+01 -1.66408527E+00 -3.74635182E+00
  1.47755267E+01 -1.66408527E+00 -3.74635182E+00  1.47755267E+01  6.87122752E+00
  8.54403388E+00  1.54747727E+01  6.87122752E+00  8.54403388E+00  1.54747727E+01
  1.10306640E+01  1.42342941E+01  1.87890235E+01  1.10306640E+01  1.42342941E+01
  1.87890235E+01  3.09750869E+00  3.23897169E+00  1.37108645E+01  3.09750869E+00
  3.23897169E+00  1.37108645E+01  9.67226463E+00  1.23851139E+01  1.77215096E+01
  9.67226463E+00  1.23851139E+01  1.77215096E+01  9.43494338E+00  1.22102235E+01
  1.50468574E+01  9.43494338E+00  1.22102235E+01  1.50468574E+01 -2.42510444E-01
 -1.89381928E+00  1.48648144E+01 -2.42510444E-01 -1.89381928E+00  1.48648144E+01
  1.90824545E+00  1.37428443E+00  1.19352022E+01  1.90824545E+00  1.37428443E+00
  1.19352022E+01  7.05571582E+00  8.65290856E+00  1.80276056E+01  7.05571582E+00
  8.65290856E+00  1.80276056E+01  5.61182521E-01 -7.36758866E-01  1.24032590E+01
  5.61182521E-01 -7.36758866E-01  1.24032590E+01  8.41420592E+00  1.05238829E+01
  1.92068892E+01  8.41420592E+00  1.05238829E+01  1.92068892E+01  8.02886052E+00
  1.02995347E+01  1.40062533E+01  8.02886052E+00  1.02995347E+01  1.40062533E+01
  1.82968197E+00  1.02062786E+00  1.66063256E+01  2.20483230E+00  1.87045093E+00
  9.92154030E+00  1.03101341E+01  1.35835650E+01  1.38290328E+01  8.52726256E+00
  1.05803631E+01  2.12768536E+01 -1.23924460E-01 -1.80233953E+00  1.07727788E+01
  7.75160746E+00  1.01056771E+01  1.19501537E+01  6.03529772E+00  7.18211582E+00
  1.90820954E+01  1.19540844E+01  1.55095550E+01  1.76585780E+01  5.81771276E+00
  7.08256693E+00  1.45879676E+01  1.10262232E+01  1.44805443E+01  2.07209850E+01
Constraint Structure                       R   N=          75
  4.21044210E+00  5.06520303E+00  1.27319391E+01  5.67694517E-01 -9.11753175E-01
  1.69561328E+01  2.97557222E+00  2.90344326E+00  1.61192524E+01 -1.66408527E+00
 -3.74635182E+00  1.47755267E+01  6.87122752E+00  8.54403388E+00  1.54747727E+01
  1.10306640E+01  1.42342941E+01  1.87890235E+01  3.09750869E+00  3.23897169E+00
  1.37108645E+01  9.67226463E+00  1.23851139E+01  1.77215096E+01  9.43494338E+00
  1.22102235E+01  1.50468574E+01 -2.42510444E-01 -1.89381928E+00  1.48648144E+01
  1.90824545E+00  1.37428443E+00  1.19352022E+01  7.05571582E+00  8.65290856E+00
  1.80276056E+01  5.61182521E-01 -7.36758866E-01  1.24032590E+01  8.41420592E+00
  1.05238829E+01  1.92068892E+01  8.02886052E+00  1.02995347E+01  1.40062533E+01
  1.82968197E+00  1.02062786E+00  1.66063256E+01  2.20483230E+00  1.87045093E+00
  9.92154030E+00  1.03101341E+01  1.35835650E+01  1.38290328E+01  8.52726256E+00
  1.05803631E+01  2.12768536E+01 -1.23924460E-01 -1.80233953E+00  1.07727788E+01
  7.75160746E+00  1.01056771E+01  1.19501537E+01  6.03529772E+00  7.18211582E+00
  1.90820954E+01  1.19540844E+01  1.55095550E+01  1.76585780E+01  5.81771276E+00
  7.08256693E+00  1.45879676E+01  1.10262232E+01  1.44805443E+01  2.07209850E+01
Num ILSW                                   I              100
ILSW                                       I   N=         100
           0           1           0           0           2           0
           0           0           0           0           0          -1
           0           0           0           1           0           0
           0           0           1           0           0           0
           1           1           0           0           0           0
           0           0      100000           0          -1           0
           0           0           0           0           0           0
           0           0           0           1           0           0
           0           0           1           0           0           0
           0           0           4          41           0           0
           0           0           0           0           0           0
           0           0           0           0           0           0
           0           0           0           0           0           0
           0           0           0           0           0           0
           0           0           0           0           0           0
           0           0           0           0           0           0
           0           0           0           0
Num RLSW                                   I               41
RLSW                                       R   N=          41
  1.00000000E+00  1.00000000E+00  1.00000000E+00  1.00000000E+00  1.00000000E+00
  0.00000000E+00  0.00000000E+00  1.00000000E+00  0.00000000E+00  0.00000000E+00
  0.00000000E+00  0.00000000E+00  1.00000000E+00  0.00000000E+00  0.00000000E+00
  0.00000000E+00  0.00000000E+00  1.00000000E+00  0.00000000E+00  0.00000000E+00
  0.00000000E+00  0.00000000E+00  1.00000000E+00  0.00000000E+00  0.00000000E+00
  0.00000000E+00  0.00000000E+00  1.00000000E+00  0.00000000E+00  0.00000000E+00
  0.00000000E+00  0.00000000E+00  1.00000000E+00  0.00000000E+00  0.00000000E+00
  0.00000000E+00  0.00000000E+00  0.00000000E+00  1.00000000E+00  1.00000000E+00
  0.00000000E+00
MxBond                                     I                3
NBond                                      I   N=          25
           1           1           1           1           3           3
           3           3           3           3           3           3
           3           3           3           0           1           1
           1           1           1           1           1           1
           1
IBond                                      I   N=          75
           7           0           0          10           0           0
           7           0           0          10           0           0
          12          15          24           8          23          25
           1           3          11           6           9          14
           8          15          18           2           4          13
           7          13          17           5          14          22
          10          11          20           8          12          19
           5           9          21           0           0           0
          11           0           0           9           0           0
          14           0           0          13           0           0
          15           0           0          12           0           0
           6           0           0           5           0           0
           6           0           0
RBond                                      R   N=          75
  2.00000000E+00  0.00000000E+00  0.00000000E+00  1.00000000E+00  0.00000000E+00
  0.00000000E+00  1.00000000E+00  0.00000000E+00  0.00000000E+00  2.00000000E+00
  0.00000000E+00  0.00000000E+00  1.50000000E+00  1.50000000E+00  1.00000000E+00
  1.50000000E+00  1.00000000E+00  1.00000000E+00  2.00000000E+00  1.00000000E+00
  1.00000000E+00  1.50000000E+00  1.50000000E+00  1.50000000E+00  1.50000000E+00
  1.50000000E+00  1.00000000E+00  1.00000000E+00  2.00000000E+00  1.00000000E+00
  1.00000000E+00  2.00000000E+00  1.00000000E+00  1.50000000E+00  1.50000000E+00
  1.00000000E+00  1.00000000E+00  2.00000000E+00  1.00000000E+00  1.50000000E+00
  1.50000000E+00  1.00000000E+00  1.50000000E+00  1.50000000E+00  1.00000000E+00
  0.00000000E+00  0.00000000E+00  0.00000000E+00  1.00000000E+00  0.00000000E+00
  0.00000000E+00  1.00000000E+00  0.00000000E+00  0.00000000E+00  1.00000000E+00
  0.00000000E+00  0.00000000E+00  1.00000000E+00  0.00000000E+00  0.00000000E+00
  1.00000000E+00  0.00000000E+00  0.00000000E+00  1.00000000E+00  0.00000000E+00
  0.00000000E+00  1.00000000E+00  0.00000000E+00  0.00000000E+00  1.00000000E+00
  0.00000000E+00  0.00000000E+00  1.00000000E+00  0.00000000E+00  0.00000000E+00
Virial Ratio                               R      2.007881551313665E+00
SCF Energy                                 R     -7.451268256538521E+02
Total Energy                               R     -7.451268256538521E+02
RMS Density                                R      4.893587665323617E-09
External E-field                           R   N=          35
  0.00000000E+00  0.00000000E+00  0.00000000E+00  0.00000000E+00  0.00000000E+00
  0.00000000E+00  0.00000000E+00  0.00000000E+00  0.00000000E+00  0.00000000E+00
  0.00000000E+00  0.00000000E+00  0.00000000E+00  0.00000000E+00  0.00000000E+00
  0.00000000E+00  0.00000000E+00  0.00000000E+00  0.00000000E+00  0.00000000E+00
  0.00000000E+00  0.00000000E+00  0.00000000E+00  0.00000000E+00  0.00000000E+00
  0.00000000E+00  0.00000000E+00  0.00000000E+00  0.00000000E+00  0.00000000E+00
  0.00000000E+00  0.00000000E+00  0.00000000E+00  0.00000000E+00  0.00000000E+00
IOpCl                                      I                0
IROHF                                      I                0
Alpha Orbital Energies                     R   N=          85
 -2.01243405E+01 -2.01165823E+01 -2.00664146E+01 -2.00563130E+01 -1.55263237E+01
 -1.54725692E+01 -1.12406607E+01 -1.12128027E+01 -1.12108522E+01 -1.11292405E+01
 -1.11280092E+01 -1.10957650E+01 -1.10351286E+01 -1.09720045E+01 -1.09655366E+01
 -1.33505327E+00 -1.28060557E+00 -1.27614915E+00 -1.21675952E+00 -1.16793624E+00
 -1.10277733E+00 -1.09925983E+00 -1.08687789E+00 -9.40795254E-01 -9.11767124E-01
 -9.01463490E-01 -8.00704307E-01 -7.64347705E-01 -7.56836633E-01 -7.36668292E-01
 -6.78233120E-01 -6.69361158E-01 -6.48398165E-01 -6.43339433E-01 -6.29218204E-01
 -5.92465071E-01 -5.87160607E-01 -5.54335055E-01 -5.48223568E-01 -5.24634643E-01
 -5.18451802E-01 -4.63149497E-01 -4.48380322E-01 -4.19257893E-01 -4.07831313E-01
 -4.04704899E-01 -3.80485330E-01 -3.58405909E-01 -3.41417054E-01 -2.57290483E-01
 -2.55868279E-01 -2.29279700E-01 -1.97315104E-01 -1.88737163E-01 -1.61738426E-01
  1.23638280E-01  1.64690989E-01  2.77320834E-01  3.72297863E-01  4.37252428E-01
  4.59606121E-01  4.85458382E-01  4.88855524E-01  5.33770593E-01  5.37078179E-01
  5.59226482E-01  5.82012212E-01  6.21969051E-01  6.34830246E-01  6.40223086E-01
  7.22776131E-01  7.51532425E-01  7.55009380E-01  7.55490859E-01  7.67729324E-01
  7.94611374E-01  7.97350688E-01  8.60844650E-01  9.22694648E-01  9.58127926E-01
  1.00263266E+00  1.01097930E+00  1.03965046E+00  1.08427183E+00  1.20531696E+00
Alpha MO coefficients                      R   N=        7225
  4.36700106E-03  3.71348427E-04  5.14709734E-05  4.76660536E-05  5.43262905E-04
  2.67810208E-03  1.19376769E-03  5.28700344E-04  7.92011712E-04 -5.64570708E-05
  9.94051510E-01  2.66646789E-02 -6.98911763E-04 -8.93714619E-04 -4.23481505E-03
  3.28628472E-05  2.24934189E-05  9.00359518E-06  1.00959633E-05 -2.15755969E-06
 -3.89738753E-06  3.91199677E-05 -1.83557205E-05 -2.60920070E-05 -1.34110866E-05
 -1.63721994E-08  2.59000037E-07 -8.72222406E-08 -1.13760877E-07 -4.26345014E-08
  5.44210754E-04 -6.00226225E-03  2.28893995E-04  6.92563708E-04 -5.49514117E-03
 -2.22073137E-08 -4.07034838E-07 -2.00627804E-07 -2.49819412E-07 -6.10533575E-07
 -3.39365260E-08 -4.44254790E-07 -5.69742345E-08 -1.19957448E-07  4.11770699E-07
 -2.39468075E-05  1.48693237E-04  7.72229482E-05  1.10657688E-04  7.84088450E-05
 -3.64195821E-05  3.32555000E-04 -9.59616586E-05 -1.85028598E-04  5.20662571E-04
 -4.13681289E-06  3.71617830E-05 -1.27942007E-05 -1.84620536E-05  1.82693798E-05
 -9.43156875E-06 -7.40591156E-05 -2.00895638E-05 -3.46428144E-05  1.02962960E-04
  2.38277739E-07 -2.67035267E-06  1.69191484E-06  2.46315158E-06 -2.26103261E-06
 -1.86099738E-07  1.60588570E-06  1.68156105E-07  4.77217374E-08  2.98678837E-06
 -4.54812770E-03  4.36313019E-05  2.03891808E-07  2.12582375E-06  3.73205164E-05
  2.37755468E-06 -7.35160757E-05 -8.68391726E-09 -8.17016704E-05 -7.77546909E-08
  9.94146462E-01  2.62999637E-02 -2.27216408E-03 -3.82596950E-03  2.57210803E-03
  1.06005636E-05  1.23483019E-05  1.98283734E-07  2.47510773E-07  4.54451624E-06
 -4.43640967E-03  1.77319201E-04  2.73574577E-04  4.34670812E-04 -4.95030336E-05
 -1.95082881E-05 -9.34858186E-06 -3.96337637E-06 -4.61668459E-06  7.85624222E-07
 -7.89137616E-05  8.89102116E-04 -3.99044135E-04 -5.61810549E-04 -3.14003395E-04
 -1.04485454E-07  1.52637099E-06 -6.02669726E-07 -8.24848373E-07 -4.52720638E-07
  5.61536408E-04 -6.88640749E-03 -2.91981342E-03 -4.78796352E-03  2.59418932E-03
 -2.03394391E-07 -1.82914221E-06 -1.82632903E-06 -2.49871567E-06 -1.20537443E-06
 -9.81192953E-08 -6.59681422E-06  7.81791439E-07  5.61577999E-07  7.25100842E-06
  9.88741449E-07  6.73358707E-06 -1.06165368E-05 -1.62067750E-05 -1.24931697E-05
 -2.26372324E-05  3.78584735E-04  2.23400105E-04  3.64241795E-04 -2.17275073E-04
 -4.07882373E-06  2.06194893E-05  1.17970985E-05  1.91280571E-05 -3.64327011E-05
  3.92783158E-06  3.76676284E-05  1.07635893E-05  1.63919187E-05 -5.25578612E-05
 -6.54907837E-07 -8.96783353E-09  5.54943935E-07  1.12636176E-06 -4.92068508E-06
 -6.52358507E-06  5.11996257E-05 -4.19726178E-06 -7.77841265E-06  2.89003997E-05
 -5.83667902E-05 -2.49618291E-04  2.55286839E-06  1.33786316E-06 -1.25924812E-05
  1.76115597E-05  6.25653805E-05 -4.89434039E-08 -2.23164823E-03  2.90140813E-08
  2.09726894E-05 -8.16346793E-06  2.89675583E-06  4.92274770E-06 -1.54242308E-06
  2.84527034E-03  3.36060233E-04 -2.93682455E-04 -3.85241715E-04  1.28321958E-04
 -4.52666815E-05  2.07569155E-05 -3.25693089E-06 -6.12329993E-06  5.62738046E-06
  9.94214232E-01  2.60720986E-02  3.35508178E-03  4.37021408E-03  2.05392457E-04
 -7.24158279E-09  9.32628946E-08 -4.00543766E-08 -5.72912597E-08 -2.50967927E-08